/*--------------------------------*- C++ -*----------------------------------*\
| =========                 |                                                 |
| \\      /  F ield         | OpenFOAM: The Open Source CFD Toolbox           |
|  \\    /   O peration     | Version:  2.3.x                                 |
|   \\  /    A nd           | Web:      www.OpenFOAM.org                      |
|    \\/     M anipulation  |                                                 |
\*---------------------------------------------------------------------------*/
FoamFile
{
    version     2.0;
    format      ascii;
    class       volScalarField;
    location    "0.5";
    object      AR;
}
// * * * * * * * * * * * * * * * * * * * * * * * * * * * * * * * * * * * * * //

dimensions      [0 0 0 0 0 0 0];

internalField   nonuniform List<scalar> 
4000
(
1.47362e-05
4.801e-05
8.55444e-05
0.000127824
0.000175359
0.00022868
0.000288338
0.000354888
0.000428889
0.000510886
0.000601402
0.000700923
0.000809883
0.000928649
0.00105751
0.00119665
0.00134616
0.00150601
0.00167603
0.00185594
0.00204532
0.00224363
0.0024502
0.00266426
0.00288493
0.00311123
0.00334246
0.00357726
0.00381456
0.00405329
0.0042924
0.00453086
0.00476768
0.00500195
0.00523282
0.0054595
0.00568132
0.00589768
0.00610806
0.00631203
0.00650926
0.00669948
0.0068825
0.00705822
0.00722656
0.00738754
0.00754119
0.00768763
0.00782696
0.00795936
0.00808501
0.0082041
0.00831685
0.00842351
0.0085243
0.00861947
0.00870926
0.00879393
0.00887371
0.00894885
0.00901959
0.00908616
0.00914862
0.00920612
0.00926028
0.00931255
0.00936172
0.00940803
0.00945172
0.00949307
0.00953233
0.00956963
0.00960509
0.00963875
0.00967066
0.00970084
0.00972933
0.00975615
0.0097813
0.00980481
0.00982671
0.00984702
0.00986576
0.00988296
0.00989864
0.00991287
0.0099257
0.00993718
0.00994739
0.0099564
0.00996429
0.00997114
0.00997705
0.00998209
0.00998637
0.00998997
0.00999298
0.00999548
0.00999756
0.00999929
1.46431e-05
4.77065e-05
8.50046e-05
0.000127021
0.000174265
0.000227266
0.000286573
0.000352742
0.00042633
0.000507884
0.00059793
0.000696954
0.000805397
0.000923628
0.00105194
0.00119053
0.0013395
0.00149881
0.00166832
0.00184774
0.00203668
0.00223459
0.00244084
0.00265466
0.00287523
0.00310165
0.00333256
0.00356722
0.00380452
0.00404336
0.00428265
0.00452137
0.00475851
0.00499316
0.00522444
0.00545159
0.0056739
0.00589076
0.00610166
0.00630616
0.00650391
0.00669466
0.0068782
0.00705441
0.00722323
0.00738466
0.00753875
0.00768557
0.00782531
0.00795808
0.00808406
0.00820345
0.00831649
0.00842339
0.0085244
0.00861977
0.00870975
0.00879457
0.00887449
0.00894974
0.00902058
0.00908724
0.00914975
0.00920734
0.00926164
0.00931398
0.00936319
0.00940952
0.00945322
0.00949458
0.00953384
0.00957114
0.00960658
0.00964022
0.00967211
0.00970227
0.00973073
0.0097575
0.00978261
0.00980607
0.00982791
0.00984816
0.00986683
0.00988396
0.00989957
0.00991372
0.00992646
0.00993786
0.00994799
0.00995692
0.00996473
0.00997151
0.00997735
0.00998234
0.00998656
0.00999011
0.00999308
0.00999554
0.00999759
0.00999931
1.45139e-05
4.72839e-05
8.42467e-05
0.000125882
0.000172698
0.000225224
0.000284007
0.000349604
0.000422574
0.000503465
0.000592806
0.000691088
0.000798755
0.000916186
0.00104368
0.00118145
0.00132958
0.00148808
0.0016568
0.00183546
0.00202369
0.00222094
0.00242657
0.00263981
0.00285979
0.00308595
0.00331688
0.00355156
0.00378894
0.00402794
0.00426749
0.00450656
0.00474415
0.00497932
0.00521121
0.00543902
0.00566204
0.00587967
0.00609136
0.00629667
0.00649524
0.00668681
0.00687116
0.00704817
0.00721777
0.00737995
0.00753477
0.00768232
0.00782266
0.007956
0.00808252
0.00820243
0.00831593
0.00842327
0.00852467
0.00862039
0.00871067
0.00879576
0.00887592
0.00895137
0.00902235
0.00908911
0.00915159
0.00920911
0.00926456
0.00931676
0.00936591
0.0094122
0.00945589
0.00949724
0.00953649
0.00957377
0.00960918
0.00964279
0.00967463
0.00970473
0.00973312
0.00975981
0.00978483
0.00980819
0.00982992
0.00985004
0.00986859
0.00988558
0.00990106
0.00991507
0.00992767
0.00993893
0.00994892
0.00995772
0.00996541
0.00997208
0.00997781
0.0099827
0.00998684
0.00999032
0.00999322
0.00999564
0.00999764
0.00999932
1.43668e-05
4.68039e-05
8.33883e-05
0.000124596
0.000170929
0.000222918
0.000281106
0.000346053
0.000418317
0.00049845
0.000586983
0.000684412
0.000791188
0.000907697
0.00103425
0.00117106
0.00131824
0.0014758
0.0016436
0.0018214
0.00200881
0.00220533
0.00241033
0.00262306
0.00284269
0.00306836
0.00329897
0.00353349
0.00377085
0.00400996
0.00424976
0.00448919
0.00472726
0.00496301
0.00519557
0.00542413
0.00564798
0.00586648
0.00607909
0.00628535
0.00648489
0.00667742
0.00686274
0.00704069
0.00721121
0.00737428
0.00752993
0.00767831
0.00781947
0.00795357
0.00808079
0.00820133
0.00831543
0.0084233
0.0085252
0.00862136
0.00871204
0.00879749
0.00887795
0.00895366
0.00902488
0.00909183
0.0091544
0.00921207
0.00926772
0.00932004
0.00936925
0.00941557
0.00945928
0.00950064
0.00953987
0.00957714
0.00961252
0.00964607
0.00967784
0.00970785
0.00973614
0.00976272
0.0097876
0.00981082
0.0098324
0.00985237
0.00987075
0.00988756
0.00990286
0.00991669
0.00992912
0.00994021
0.00995003
0.00995867
0.00996621
0.00997274
0.00997835
0.00998312
0.00998717
0.00999056
0.00999339
0.00999574
0.0099977
0.00999934
1.42174e-05
4.63167e-05
8.25187e-05
0.000123294
0.000169142
0.000220588
0.000278176
0.000342463
0.000414009
0.000493368
0.000581073
0.000677627
0.000783485
0.000899041
0.00102461
0.00116043
0.00130662
0.00146319
0.00163004
0.00180692
0.00199347
0.00218921
0.00239351
0.00260565
0.0028251
0.00305018
0.0032804
0.0035147
0.003752
0.0039912
0.00423123
0.00447102
0.00470956
0.00494591
0.00517916
0.0054085
0.00563319
0.00585261
0.00606618
0.00627343
0.00647399
0.00666756
0.0068539
0.00703288
0.00720441
0.00736846
0.00752507
0.00767432
0.00781632
0.00795121
0.00807918
0.00820042
0.00831516
0.00842363
0.00852606
0.00862271
0.00871383
0.00879966
0.00888046
0.00895647
0.00902795
0.00909512
0.00915775
0.00921554
0.00927133
0.00932373
0.009373
0.00941937
0.0094631
0.00950446
0.00954369
0.00958093
0.00961626
0.00964975
0.00968143
0.00971134
0.0097395
0.00976594
0.00979067
0.00981373
0.00983513
0.00985491
0.00987309
0.00988971
0.0099048
0.00991843
0.00993066
0.00994156
0.0099512
0.00995966
0.00996704
0.00997343
0.0099789
0.00998356
0.0099875
0.00999081
0.00999357
0.00999586
0.00999776
0.00999935
1.40732e-05
4.58473e-05
8.16819e-05
0.000122043
0.000167426
0.000218353
0.000275366
0.000339021
0.000409878
0.00048849
0.000575396
0.000671101
0.000776066
0.000890692
0.00101531
0.00115015
0.00129536
0.00145096
0.00161686
0.00179282
0.00197851
0.00217344
0.002377
0.00258847
0.00280716
0.00303198
0.00326198
0.00349616
0.00373344
0.00397274
0.004213
0.00445314
0.00469215
0.00492907
0.005163
0.0053931
0.00561865
0.00583897
0.00605349
0.00626174
0.00646332
0.00665791
0.00684529
0.00702529
0.00719783
0.00736286
0.00752047
0.0076706
0.00781344
0.00794914
0.00807787
0.00819982
0.00831521
0.00842428
0.00852725
0.0086244
0.00871595
0.00880217
0.00888331
0.00895962
0.00903134
0.00909871
0.00916132
0.00921925
0.00927515
0.00932765
0.00937697
0.00942337
0.00946711
0.00950848
0.0095477
0.0095849
0.00962018
0.00965359
0.00968517
0.00971496
0.00974299
0.00976927
0.00979384
0.00981671
0.00983792
0.0098575
0.00987548
0.00989188
0.00990676
0.00992018
0.0099322
0.0099429
0.00995236
0.00996065
0.00996787
0.0099741
0.00997945
0.009984
0.00998783
0.00999105
0.00999374
0.00999597
0.00999782
0.00999937
1.39387e-05
4.54095e-05
8.09023e-05
0.000120879
0.000165831
0.000216277
0.000272757
0.000335825
0.000406041
0.000483958
0.000570118
0.000665027
0.000769154
0.000882907
0.00100662
0.00114054
0.00128482
0.0014395
0.00160449
0.00177959
0.00196446
0.00215864
0.00236155
0.00257268
0.00279066
0.00301499
0.00324467
0.00347867
0.0037159
0.00395529
0.00419576
0.00443623
0.00467569
0.00491316
0.00514774
0.00537858
0.00560493
0.00582612
0.00604156
0.00625077
0.00645333
0.00664893
0.0068373
0.0070183
0.0071918
0.00735779
0.00751627
0.00766729
0.00781098
0.00794747
0.00807693
0.00819957
0.00831559
0.00842524
0.00852874
0.00862635
0.00871833
0.00880492
0.00888638
0.00896296
0.00903491
0.00910248
0.00916512
0.0092231
0.00927908
0.00933163
0.00938099
0.0094274
0.00947115
0.00951252
0.00955171
0.00958887
0.00962409
0.00965741
0.00968889
0.00971856
0.00974644
0.00977257
0.00979696
0.00981965
0.00984066
0.00986004
0.0098778
0.00989399
0.00990866
0.00992187
0.00993369
0.0099442
0.00995347
0.00996159
0.00996866
0.00997475
0.00997997
0.00998441
0.00998815
0.00999129
0.0099939
0.00999608
0.00999788
0.00999939
1.38159e-05
4.50097e-05
8.01908e-05
0.000119817
0.000164377
0.000214387
0.000270383
0.000332917
0.000402549
0.000479834
0.000565311
0.000659494
0.000762854
0.000875803
0.000998685
0.00113176
0.00127518
0.001429
0.00159315
0.00176743
0.00195153
0.00214497
0.00234718
0.00255757
0.0027752
0.00299922
0.00322867
0.00346253
0.00369974
0.00393922
0.00417988
0.00442067
0.00466055
0.00489854
0.00513373
0.00536526
0.00559237
0.00581438
0.0060307
0.00624081
0.00644429
0.00664082
0.00683014
0.00701206
0.00718649
0.00735341
0.00751272
0.00766456
0.00780902
0.00794624
0.0080764
0.00819968
0.00831629
0.00842647
0.00853046
0.00862851
0.00872087
0.00880779
0.00888954
0.00896636
0.0090385
0.00910622
0.00916874
0.00922685
0.00928293
0.00933553
0.00938492
0.00943134
0.00947509
0.00951644
0.00955561
0.00959272
0.00962787
0.0096611
0.00969247
0.00972201
0.00974975
0.00977572
0.00979994
0.00982244
0.00984326
0.00986244
0.00988
0.00989598
0.00991045
0.00992346
0.00993509
0.00994541
0.00995451
0.00996247
0.00996939
0.00997535
0.00998045
0.00998479
0.00998844
0.0099915
0.00999406
0.00999617
0.00999793
0.0099994
1.37053e-05
4.46501e-05
7.95511e-05
0.000118863
0.000163072
0.00021269
0.000268252
0.000330309
0.000399418
0.000476134
0.000561
0.000654529
0.000757197
0.000869422
0.000991553
0.00112386
0.0012665
0.00141955
0.00158294
0.00175649
0.0019399
0.00213272
0.00233452
0.00254425
0.00276139
0.00298504
0.00321424
0.00344796
0.00368514
0.0039247
0.00416556
0.00440664
0.00464691
0.00488539
0.00512114
0.00535332
0.00558114
0.00580391
0.00602102
0.00623196
0.0064363
0.0066337
0.00682388
0.00700666
0.00718193
0.00734963
0.00750975
0.00766236
0.00780754
0.00794544
0.00807623
0.00820009
0.00831724
0.00842791
0.00853234
0.00863077
0.00872348
0.0088107
0.0088927
0.00896974
0.00904206
0.00910992
0.00917237
0.00923052
0.00928664
0.00933928
0.00938868
0.0094351
0.00947883
0.00952017
0.0095593
0.00959636
0.00963143
0.00966457
0.00969584
0.00972525
0.00975285
0.00977866
0.00980272
0.00982504
0.00984568
0.00986467
0.00988203
0.00989782
0.00991209
0.00992492
0.00993637
0.00994652
0.00995546
0.00996328
0.00997006
0.0099759
0.0099809
0.00998514
0.00998871
0.0099917
0.0099942
0.00999626
0.00999798
0.00999942
1.36071e-05
4.43306e-05
7.89828e-05
0.000118016
0.000161913
0.000211184
0.000266362
0.000327995
0.000396641
0.000472854
0.000557177
0.000650127
0.00075218
0.00086376
0.000985223
0.00111684
0.00125879
0.00141115
0.00157385
0.00174673
0.0019295
0.0021217
0.00232286
0.00253221
0.00274901
0.00297238
0.00320138
0.003435
0.00367217
0.00391181
0.00415285
0.0043942
0.00463484
0.00487376
0.00511003
0.00534279
0.00557126
0.00579472
0.00601256
0.00622427
0.00642939
0.00662757
0.00681854
0.00700211
0.00717817
0.00734658
0.00750741
0.00766069
0.00780652
0.00794502
0.00807637
0.00820075
0.00831838
0.00842948
0.00853429
0.00863307
0.00872608
0.00881356
0.00889578
0.008973
0.00904547
0.00911345
0.00917576
0.00923397
0.00929014
0.0093428
0.0093922
0.0094386
0.00948232
0.00952363
0.00956272
0.00959972
0.00963472
0.00966778
0.00969894
0.00972823
0.0097557
0.00978136
0.00980526
0.00982742
0.00984789
0.0098667
0.00988389
0.00989949
0.00991359
0.00992624
0.00993753
0.00994752
0.00995632
0.009964
0.00997066
0.00997639
0.00998129
0.00998545
0.00998895
0.00999188
0.00999432
0.00999635
0.00999803
0.00999943
1.35207e-05
4.40496e-05
7.84832e-05
0.000117271
0.000160895
0.000209862
0.000264703
0.000325965
0.000394205
0.000469977
0.000553823
0.000646264
0.000747777
0.000858792
0.000979668
0.00111068
0.00125203
0.00140377
0.00156588
0.00173819
0.00192043
0.00211222
0.00231282
0.00252174
0.00273818
0.00296129
0.00319011
0.00342363
0.00366079
0.00390052
0.00414172
0.00438332
0.00462429
0.00486362
0.00510036
0.00533365
0.0055627
0.00578679
0.00600529
0.00621767
0.00642349
0.00662237
0.00681404
0.00699829
0.00717501
0.00734411
0.00750558
0.00765947
0.00780587
0.00794491
0.00807675
0.00820159
0.00831963
0.00843111
0.00853626
0.00863533
0.00872859
0.0088163
0.00889871
0.00897608
0.00904868
0.00911676
0.00917892
0.00923717
0.00929337
0.00934604
0.00939543
0.00944182
0.00948552
0.00952679
0.00956584
0.00960279
0.00963772
0.00967069
0.00970175
0.00973093
0.00975827
0.0097838
0.00980755
0.00982956
0.00984987
0.00986853
0.00988554
0.00990099
0.00991493
0.00992742
0.00993856
0.00994842
0.00995708
0.00996465
0.0099712
0.00997683
0.00998165
0.00998573
0.00998916
0.00999204
0.00999443
0.00999642
0.00999807
0.00999944
1.34455e-05
4.38051e-05
7.80486e-05
0.000116624
0.00016001
0.000208712
0.000263261
0.000324201
0.000392088
0.000467477
0.000550911
0.000642909
0.000743954
0.000854477
0.000974843
0.00110533
0.00124614
0.00139736
0.00155894
0.00173073
0.00191245
0.00210374
0.002304
0.00251259
0.00272876
0.00295166
0.00318033
0.00341377
0.00365094
0.00389074
0.0041321
0.00437394
0.0046152
0.00485489
0.00509206
0.00532583
0.00555539
0.00578003
0.00599912
0.00621211
0.00641854
0.00661805
0.00681035
0.00699524
0.00717253
0.00734219
0.00750421
0.00765863
0.00780552
0.00794503
0.0080773
0.00820253
0.00832093
0.00843273
0.00853817
0.00863749
0.00873097
0.00881885
0.00890141
0.00897891
0.0090516
0.00911974
0.00918186
0.00924011
0.00929633
0.009349
0.00939837
0.00944473
0.0094884
0.00952964
0.00956864
0.00960553
0.0096404
0.00967329
0.00970426
0.00973334
0.00976056
0.00978597
0.00980959
0.00983146
0.00985163
0.00987014
0.00988701
0.00990231
0.0099161
0.00992846
0.00993947
0.00994921
0.00995776
0.00996521
0.00997167
0.00997722
0.00998196
0.00998597
0.00998935
0.00999218
0.00999453
0.00999648
0.0099981
0.00999945
1.33808e-05
4.35948e-05
7.76749e-05
0.000116067
0.000159249
0.000207725
0.000262022
0.000322686
0.000390271
0.000465331
0.000548411
0.00064003
0.000740674
0.000850775
0.000970703
0.00110075
0.0012411
0.00139186
0.001553
0.00172439
0.00190575
0.0020966
0.00229649
0.00250478
0.00272071
0.00294341
0.00317196
0.00340535
0.00364252
0.0038824
0.0041239
0.00436594
0.00460748
0.00484749
0.00508503
0.00531921
0.00554923
0.00577436
0.00599396
0.00620747
0.00641444
0.00661449
0.00680732
0.00699272
0.00717054
0.00734071
0.00750321
0.00765809
0.00780541
0.00794531
0.00807795
0.00820352
0.00832222
0.00843429
0.00853996
0.0086395
0.00873315
0.00882118
0.00890386
0.00898145
0.00905421
0.0091224
0.00918452
0.00924277
0.00929899
0.00935164
0.00940099
0.00944732
0.00949095
0.00953215
0.00957112
0.00960796
0.00964276
0.00967558
0.00970646
0.00973544
0.00976257
0.00978786
0.00981137
0.00983312
0.00985316
0.00987154
0.00988828
0.00990346
0.00991713
0.00992937
0.00994026
0.00994989
0.00995834
0.00996571
0.00997208
0.00997756
0.00998223
0.00998619
0.00998952
0.0099923
0.00999462
0.00999654
0.00999813
0.00999946
1.3326e-05
4.34165e-05
7.7358e-05
0.000115595
0.000158604
0.000206887
0.000260972
0.000321402
0.000388731
0.000463514
0.000546294
0.000637592
0.000737896
0.00084764
0.000967197
0.00109686
0.00123683
0.0013872
0.00154795
0.00171894
0.00189993
0.0020905
0.00229012
0.00249817
0.0027139
0.00293646
0.00316491
0.00339825
0.00363544
0.00387539
0.00411702
0.00435924
0.004601
0.00484129
0.00507916
0.0053137
0.00554412
0.00576966
0.0059897
0.00620367
0.0064111
0.00661161
0.0068049
0.00699075
0.00716902
0.00733961
0.00750252
0.00765777
0.00780546
0.0079457
0.00807865
0.00820449
0.00832345
0.00843574
0.00854161
0.00864132
0.00873511
0.00882326
0.00890604
0.0089837
0.00905651
0.00912473
0.00918687
0.00924511
0.00930132
0.00935395
0.00940327
0.00944958
0.00949317
0.00953434
0.00957326
0.00961006
0.0096448
0.00967755
0.00970836
0.00973726
0.0097643
0.00978949
0.0098129
0.00983454
0.00985448
0.00987275
0.00988938
0.00990444
0.009918
0.00993014
0.00994094
0.00995047
0.00995884
0.00996613
0.00997243
0.00997784
0.00998246
0.00998637
0.00998965
0.0099924
0.00999469
0.00999659
0.00999816
0.00999947
1.32803e-05
4.3268e-05
7.7094e-05
0.000115202
0.000158067
0.00020619
0.000260098
0.000320334
0.00038745
0.000462002
0.000544533
0.000635565
0.000735587
0.000845035
0.000964285
0.00109363
0.00123328
0.00138334
0.00154378
0.00171448
0.00189517
0.00208546
0.00228485
0.0024927
0.00270826
0.0029307
0.00315907
0.00339238
0.00362958
0.00386959
0.00411133
0.00435371
0.00459568
0.00483621
0.00507435
0.0053092
0.00553994
0.00576585
0.00598625
0.00620061
0.00640843
0.00660933
0.00680301
0.00698924
0.00716786
0.00733881
0.00750206
0.00765763
0.00780561
0.00794613
0.00807933
0.00820541
0.00832457
0.00843704
0.00854308
0.00864292
0.00873683
0.00882508
0.00890792
0.00898564
0.00905849
0.00912673
0.00918886
0.0092471
0.0093033
0.00935592
0.00940522
0.00945149
0.00949506
0.0095362
0.00957509
0.00961184
0.00964653
0.00967922
0.00970997
0.0097388
0.00976575
0.00979087
0.00981419
0.00983574
0.00985559
0.00987376
0.0098903
0.00990527
0.00991874
0.00993079
0.0099415
0.00995096
0.00995926
0.00996648
0.00997272
0.00997808
0.00998265
0.00998652
0.00998977
0.00999249
0.00999475
0.00999662
0.00999818
0.00999948
1.32432e-05
4.31473e-05
7.68795e-05
0.000114883
0.00015763
0.000205624
0.000259388
0.000319466
0.00038641
0.000460774
0.000543103
0.00063392
0.000733713
0.000842922
0.000961924
0.00109102
0.00123041
0.00138021
0.0015404
0.00171087
0.00189132
0.0020814
0.00228059
0.00248828
0.00270371
0.00292604
0.00315435
0.00338764
0.00362486
0.00386493
0.00410676
0.00434927
0.0045914
0.00483213
0.0050705
0.0053056
0.00553662
0.00576281
0.00598352
0.00619819
0.00640632
0.00660754
0.00680153
0.00698807
0.007167
0.00733824
0.00750176
0.00765759
0.00780582
0.00794656
0.00807996
0.00820622
0.00832555
0.00843817
0.00854433
0.00864428
0.00873828
0.0088266
0.00890951
0.00898727
0.00906015
0.00912841
0.00919054
0.00924876
0.00930495
0.00935755
0.00940683
0.00945308
0.00949663
0.00953774
0.00957659
0.00961331
0.00964796
0.0096806
0.00971129
0.00974006
0.00976695
0.009792
0.00981524
0.00983673
0.0098565
0.00987459
0.00989105
0.00990594
0.00991934
0.00993132
0.00994197
0.00995136
0.0099596
0.00996676
0.00997296
0.00997828
0.00998281
0.00998664
0.00998987
0.00999256
0.0099948
0.00999666
0.0099982
0.00999948
1.32141e-05
4.30527e-05
7.67115e-05
0.000114633
0.000157289
0.000205181
0.000258833
0.000318787
0.000385596
0.000459814
0.000541985
0.000632633
0.000732248
0.000841269
0.000960076
0.00108897
0.00122816
0.00137775
0.00153775
0.00170801
0.00188829
0.00207821
0.00227726
0.00248482
0.00270015
0.00292241
0.00315068
0.00338395
0.00362118
0.0038613
0.00410321
0.00434582
0.00458808
0.00482897
0.00506752
0.00530283
0.00553406
0.00576048
0.00598144
0.00619635
0.00640473
0.0066062
0.00680044
0.00698722
0.00716638
0.00733785
0.00750158
0.00765762
0.00780603
0.00794694
0.00808051
0.00820691
0.00832637
0.0084391
0.00854536
0.00864539
0.00873946
0.00882784
0.00891079
0.00898858
0.00906148
0.00912975
0.00919188
0.00925009
0.00930627
0.00935886
0.00940812
0.00945435
0.00949787
0.00953896
0.00957779
0.00961447
0.00964909
0.00968169
0.00971234
0.00974106
0.0097679
0.00979289
0.00981608
0.0098375
0.00985721
0.00987524
0.00989164
0.00990647
0.00991981
0.00993174
0.00994233
0.00995168
0.00995986
0.00996699
0.00997315
0.00997843
0.00998293
0.00998674
0.00998994
0.00999262
0.00999484
0.00999668
0.00999821
0.00999948
1.31926e-05
4.2983e-05
7.65877e-05
0.000114448
0.000157037
0.000204854
0.000258423
0.000318287
0.000384997
0.000459106
0.000541161
0.000631685
0.000731168
0.000840051
0.000958715
0.00108746
0.0012265
0.00137595
0.0015358
0.00170592
0.00188607
0.00207587
0.00227481
0.00248228
0.00269754
0.00291975
0.00314798
0.00338124
0.00361849
0.00385864
0.00410061
0.0043433
0.00458566
0.00482667
0.00506535
0.00530081
0.0055322
0.0057588
0.00597993
0.00619502
0.00640359
0.00660524
0.00679966
0.00698662
0.00716596
0.00733759
0.00750148
0.00765767
0.00780622
0.00794726
0.00808094
0.00820745
0.008327
0.00843981
0.00854614
0.00864623
0.00874035
0.00882877
0.00891175
0.00898957
0.00906248
0.00913075
0.00919288
0.00925109
0.00930726
0.00935983
0.00940908
0.00945529
0.0094988
0.00953987
0.00957868
0.00961534
0.00964993
0.0096825
0.00971312
0.0097418
0.0097686
0.00979355
0.0098167
0.00983808
0.00985774
0.00987573
0.00989208
0.00990687
0.00992017
0.00993205
0.0099426
0.00995191
0.00996006
0.00996716
0.00997329
0.00997854
0.00998302
0.00998681
0.00999
0.00999266
0.00999487
0.0099967
0.00999822
0.00999949
1.31785e-05
4.29372e-05
7.65062e-05
0.000114327
0.000156871
0.000204639
0.000258154
0.000317958
0.000384602
0.000458641
0.00054062
0.000631062
0.000730458
0.000839251
0.000957821
0.00108647
0.00122541
0.00137476
0.00153452
0.00170455
0.00188461
0.00207433
0.00227321
0.00248062
0.00269583
0.002918
0.00314621
0.00337947
0.00361672
0.0038569
0.0040989
0.00434165
0.00458408
0.00482516
0.00506394
0.00529949
0.00553099
0.0057577
0.00597895
0.00619416
0.00640285
0.00660463
0.00679917
0.00698625
0.0071657
0.00733744
0.00750143
0.00765772
0.00780636
0.00794748
0.00808124
0.00820782
0.00832742
0.00844029
0.00854667
0.0086468
0.00874095
0.0088294
0.0089124
0.00899023
0.00906315
0.00913142
0.00919354
0.00925175
0.00930791
0.00936048
0.00940971
0.00945592
0.00949942
0.00954048
0.00957927
0.00961591
0.00965048
0.00968304
0.00971363
0.00974229
0.00976907
0.00979399
0.00981711
0.00983846
0.00985809
0.00987605
0.00989237
0.00990713
0.0099204
0.00993225
0.00994278
0.00995206
0.00996019
0.00996727
0.00997338
0.00997862
0.00998308
0.00998686
0.00999003
0.00999268
0.00999489
0.00999671
0.00999823
0.00999949
1.31716e-05
4.29145e-05
7.64659e-05
0.000114267
0.000156789
0.000204533
0.000258021
0.000317795
0.000384408
0.000458412
0.000540353
0.000630755
0.000730109
0.000838858
0.000957381
0.00108598
0.00122488
0.00137418
0.00153389
0.00170387
0.0018839
0.00207358
0.00227242
0.0024798
0.00269499
0.00291715
0.00314535
0.0033786
0.00361586
0.00385605
0.00409807
0.00434084
0.0045833
0.00482443
0.00506324
0.00529885
0.0055304
0.00575717
0.00597847
0.00619374
0.00640249
0.00660433
0.00679893
0.00698607
0.00716558
0.00733737
0.00750142
0.00765774
0.00780643
0.00794759
0.00808139
0.008208
0.00832764
0.00844053
0.00854693
0.00864708
0.00874125
0.00882971
0.00891272
0.00899056
0.00906349
0.00913174
0.00919387
0.00925207
0.00930824
0.0093608
0.00941003
0.00945623
0.00949972
0.00954078
0.00957956
0.0096162
0.00965076
0.00968331
0.00971389
0.00974254
0.0097693
0.00979421
0.00981731
0.00983865
0.00985826
0.0098762
0.00989251
0.00990726
0.00992051
0.00993235
0.00994286
0.00995214
0.00996026
0.00996732
0.00997342
0.00997866
0.00998311
0.00998688
0.00999005
0.0099927
0.0099949
0.00999672
0.00999823
0.00999949
1.31716e-05
4.29145e-05
7.64659e-05
0.000114267
0.000156789
0.000204533
0.000258021
0.000317795
0.000384408
0.000458412
0.000540353
0.000630755
0.000730109
0.000838858
0.000957381
0.00108598
0.00122488
0.00137418
0.00153389
0.00170387
0.0018839
0.00207358
0.00227242
0.0024798
0.00269499
0.00291715
0.00314535
0.0033786
0.00361586
0.00385605
0.00409807
0.00434084
0.00458331
0.00482443
0.00506324
0.00529885
0.0055304
0.00575717
0.00597847
0.00619374
0.0064025
0.00660433
0.00679893
0.00698607
0.00716558
0.00733737
0.00750142
0.00765774
0.00780643
0.00794759
0.00808139
0.008208
0.00832764
0.00844053
0.00854693
0.00864708
0.00874125
0.00882971
0.00891272
0.00899056
0.00906349
0.00913175
0.00919387
0.00925207
0.00930824
0.0093608
0.00941003
0.00945623
0.00949972
0.00954078
0.00957956
0.0096162
0.00965076
0.00968331
0.00971389
0.00974254
0.0097693
0.00979421
0.00981731
0.00983865
0.00985826
0.0098762
0.00989251
0.00990726
0.00992051
0.00993235
0.00994286
0.00995214
0.00996026
0.00996732
0.00997342
0.00997866
0.00998311
0.00998688
0.00999005
0.0099927
0.0099949
0.00999672
0.00999823
0.00999949
1.31785e-05
4.29372e-05
7.65062e-05
0.000114327
0.000156871
0.000204639
0.000258154
0.000317958
0.000384602
0.000458641
0.00054062
0.000631062
0.000730458
0.000839251
0.000957821
0.00108647
0.00122541
0.00137476
0.00153452
0.00170455
0.00188461
0.00207433
0.00227321
0.00248062
0.00269583
0.002918
0.00314621
0.00337947
0.00361672
0.0038569
0.0040989
0.00434165
0.00458408
0.00482516
0.00506394
0.00529949
0.00553099
0.0057577
0.00597895
0.00619416
0.00640285
0.00660463
0.00679917
0.00698625
0.0071657
0.00733744
0.00750144
0.00765772
0.00780636
0.00794748
0.00808124
0.00820782
0.00832743
0.00844029
0.00854667
0.0086468
0.00874095
0.0088294
0.0089124
0.00899023
0.00906315
0.00913142
0.00919354
0.00925175
0.00930791
0.00936048
0.00940972
0.00945592
0.00949942
0.00954048
0.00957927
0.00961591
0.00965049
0.00968304
0.00971363
0.00974229
0.00976907
0.00979399
0.00981711
0.00983846
0.00985809
0.00987605
0.00989237
0.00990713
0.0099204
0.00993225
0.00994278
0.00995206
0.00996019
0.00996727
0.00997338
0.00997862
0.00998308
0.00998686
0.00999003
0.00999268
0.00999489
0.00999671
0.00999823
0.00999949
1.31926e-05
4.2983e-05
7.65877e-05
0.000114448
0.000157037
0.000204854
0.000258423
0.000318287
0.000384997
0.000459107
0.000541161
0.000631685
0.000731168
0.000840051
0.000958715
0.00108746
0.0012265
0.00137595
0.0015358
0.00170592
0.00188607
0.00207587
0.00227482
0.00248228
0.00269754
0.00291975
0.00314798
0.00338124
0.00361849
0.00385864
0.00410061
0.0043433
0.00458566
0.00482667
0.00506535
0.00530081
0.0055322
0.0057588
0.00597993
0.00619502
0.00640359
0.00660524
0.00679966
0.00698662
0.00716596
0.00733759
0.00750149
0.00765767
0.00780622
0.00794726
0.00808094
0.00820745
0.008327
0.00843981
0.00854614
0.00864623
0.00874035
0.00882877
0.00891175
0.00898957
0.00906248
0.00913076
0.00919288
0.00925109
0.00930726
0.00935983
0.00940908
0.0094553
0.0094988
0.00953987
0.00957868
0.00961534
0.00964993
0.0096825
0.00971312
0.0097418
0.0097686
0.00979355
0.0098167
0.00983808
0.00985774
0.00987573
0.00989208
0.00990687
0.00992017
0.00993205
0.0099426
0.00995191
0.00996006
0.00996716
0.00997329
0.00997854
0.00998302
0.00998681
0.00999
0.00999266
0.00999487
0.0099967
0.00999822
0.00999949
1.32141e-05
4.30527e-05
7.67115e-05
0.000114633
0.000157289
0.000205181
0.000258833
0.000318787
0.000385596
0.000459814
0.000541985
0.000632633
0.000732248
0.000841269
0.000960076
0.00108897
0.00122816
0.00137775
0.00153775
0.00170801
0.00188829
0.00207821
0.00227726
0.00248482
0.00270015
0.00292241
0.00315068
0.00338395
0.00362118
0.0038613
0.00410321
0.00434582
0.00458809
0.00482897
0.00506752
0.00530283
0.00553406
0.00576049
0.00598144
0.00619635
0.00640473
0.0066062
0.00680044
0.00698722
0.00716639
0.00733785
0.00750158
0.00765762
0.00780603
0.00794694
0.00808051
0.00820691
0.00832637
0.0084391
0.00854536
0.00864539
0.00873946
0.00882784
0.00891079
0.00898858
0.00906148
0.00912975
0.00919188
0.0092501
0.00930627
0.00935886
0.00940812
0.00945435
0.00949787
0.00953896
0.00957779
0.00961447
0.00964909
0.00968169
0.00971234
0.00974106
0.0097679
0.00979289
0.00981608
0.0098375
0.00985721
0.00987524
0.00989164
0.00990647
0.00991981
0.00993174
0.00994233
0.00995168
0.00995986
0.00996699
0.00997315
0.00997843
0.00998293
0.00998674
0.00998994
0.00999262
0.00999484
0.00999668
0.00999821
0.00999948
1.32432e-05
4.31473e-05
7.68795e-05
0.000114883
0.00015763
0.000205624
0.000259388
0.000319466
0.00038641
0.000460775
0.000543104
0.00063392
0.000733713
0.000842922
0.000961924
0.00109102
0.00123041
0.00138021
0.00154041
0.00171087
0.00189132
0.0020814
0.00228059
0.00248828
0.00270371
0.00292604
0.00315435
0.00338764
0.00362486
0.00386493
0.00410676
0.00434927
0.0045914
0.00483213
0.0050705
0.0053056
0.00553662
0.00576282
0.00598353
0.00619819
0.00640633
0.00660754
0.00680154
0.00698808
0.00716701
0.00733824
0.00750176
0.0076576
0.00780582
0.00794656
0.00807996
0.00820623
0.00832555
0.00843817
0.00854433
0.00864428
0.00873828
0.00882661
0.00890951
0.00898727
0.00906015
0.00912841
0.00919054
0.00924876
0.00930495
0.00935755
0.00940683
0.00945309
0.00949663
0.00953774
0.00957659
0.00961331
0.00964796
0.0096806
0.00971129
0.00974006
0.00976695
0.009792
0.00981525
0.00983673
0.0098565
0.00987459
0.00989105
0.00990594
0.00991934
0.00993132
0.00994197
0.00995136
0.0099596
0.00996676
0.00997296
0.00997828
0.00998281
0.00998664
0.00998987
0.00999256
0.0099948
0.00999666
0.0099982
0.00999948
1.32803e-05
4.3268e-05
7.7094e-05
0.000115202
0.000158067
0.00020619
0.000260098
0.000320334
0.00038745
0.000462002
0.000544533
0.000635565
0.000735587
0.000845035
0.000964285
0.00109363
0.00123328
0.00138334
0.00154378
0.00171448
0.00189517
0.00208547
0.00228485
0.0024927
0.00270826
0.0029307
0.00315907
0.00339238
0.00362958
0.0038696
0.00411134
0.00435371
0.00459568
0.00483621
0.00507435
0.0053092
0.00553995
0.00576585
0.00598626
0.00620061
0.00640843
0.00660933
0.00680301
0.00698924
0.00716787
0.00733881
0.00750206
0.00765763
0.00780562
0.00794613
0.00807933
0.00820541
0.00832457
0.00843705
0.00854308
0.00864292
0.00873683
0.00882508
0.00890793
0.00898564
0.00905849
0.00912673
0.00918886
0.0092471
0.0093033
0.00935592
0.00940522
0.0094515
0.00949506
0.0095362
0.00957509
0.00961184
0.00964653
0.00967923
0.00970997
0.0097388
0.00976575
0.00979087
0.00981419
0.00983574
0.00985559
0.00987376
0.0098903
0.00990527
0.00991874
0.00993079
0.0099415
0.00995096
0.00995926
0.00996648
0.00997272
0.00997808
0.00998265
0.00998652
0.00998977
0.00999249
0.00999475
0.00999662
0.00999818
0.00999948
1.3326e-05
4.34165e-05
7.7358e-05
0.000115595
0.000158604
0.000206887
0.000260972
0.000321402
0.000388731
0.000463514
0.000546294
0.000637593
0.000737896
0.000847641
0.000967198
0.00109686
0.00123683
0.0013872
0.00154795
0.00171895
0.00189994
0.0020905
0.00229012
0.00249817
0.0027139
0.00293646
0.00316491
0.00339825
0.00363544
0.00387539
0.00411702
0.00435924
0.004601
0.0048413
0.00507916
0.00531371
0.00554412
0.00576967
0.0059897
0.00620367
0.0064111
0.00661161
0.0068049
0.00699075