/*--------------------------------*- C++ -*----------------------------------*\
| =========                 |                                                 |
| \\      /  F ield         | OpenFOAM: The Open Source CFD Toolbox           |
|  \\    /   O peration     | Version:  2.3.x                                 |
|   \\  /    A nd           | Web:      www.OpenFOAM.org                      |
|    \\/     M anipulation  |                                                 |
\*---------------------------------------------------------------------------*/
FoamFile
{
    version     2.0;
    format      ascii;
    class       volScalarField;
    location    "0.5";
    object      CH4;
}
// * * * * * * * * * * * * * * * * * * * * * * * * * * * * * * * * * * * * * //

dimensions      [0 0 0 0 0 0 0];

internalField   nonuniform List<scalar> 
4000
(
0.998439
0.994913
0.990937
0.986457
0.981421
0.975772
0.969452
0.962403
0.954564
0.945878
0.936291
0.92575
0.91421
0.901633
0.887987
0.873252
0.857421
0.840496
0.822495
0.803448
0.7834
0.762407
0.740541
0.717883
0.694528
0.670578
0.646106
0.62126
0.59615
0.57089
0.545591
0.520362
0.495308
0.470526
0.446105
0.422127
0.398665
0.375783
0.353535
0.331965
0.311109
0.290996
0.271645
0.253068
0.235271
0.218254
0.202012
0.186534
0.171808
0.157816
0.144539
0.131955
0.120043
0.108777
0.0981323
0.0880848
0.0786092
0.0696814
0.0612785
0.0533794
0.0459657
0.0390233
0.0325607
0.0266871
0.0212698
0.016216
0.0117283
0.00790475
0.00491121
0.00301309
0.00183278
0.00110291
0.000655463
0.000384152
0.000221737
0.0001259
7.02345e-05
3.84514e-05
2.06349e-05
1.08419e-05
5.57057e-06
2.79542e-06
1.36823e-06
6.52827e-07
3.03356e-07
1.37158e-07
6.02916e-08
2.57501e-08
1.06804e-08
4.30107e-09
1.68173e-09
6.38627e-10
2.3567e-10
8.45945e-11
2.95918e-11
1.01391e-11
3.44429e-12
1.17912e-12
3.97129e-13
9.00461e-14
0.998449
0.994945
0.990994
0.986542
0.981537
0.975922
0.969639
0.96263
0.954835
0.946196
0.936659
0.92617
0.914685
0.902164
0.888576
0.8739
0.858126
0.841258
0.823312
0.804316
0.784314
0.763364
0.741532
0.718899
0.695554
0.671591
0.647154
0.622322
0.597212
0.57194
0.546622
0.521366
0.496278
0.471455
0.44699
0.422964
0.399451
0.376515
0.354211
0.332585
0.311674
0.291505
0.2721
0.25347
0.235623
0.218558
0.20227
0.186752
0.171982
0.157951
0.144639
0.132023
0.120082
0.108789
0.0981211
0.0880524
0.0785581
0.0696142
0.0611975
0.0532869
0.045864
0.0389141
0.0324483
0.0265688
0.0211421
0.01609
0.0116098
0.00780245
0.0048353
0.00296617
0.00180377
0.00108504
0.000644529
0.00037752
0.000217758
0.000123541
6.88568e-05
3.7659e-05
2.0187e-05
1.05935e-05
5.43562e-06
2.7237e-06
1.33101e-06
6.34025e-07
2.94108e-07
1.32737e-07
5.82394e-08
2.48263e-08
1.02776e-08
4.13103e-09
1.61227e-09
6.11184e-10
2.2518e-10
8.07147e-11
2.82024e-11
9.65642e-12
3.28053e-12
1.12443e-12
3.7935e-13
8.61196e-14
0.998462
0.99499
0.991074
0.986663
0.981703
0.976138
0.969911
0.962962
0.955232
0.946664
0.937201
0.926792
0.915389
0.902952
0.889451
0.874862
0.859176
0.842394
0.824531
0.805616
0.785689
0.764808
0.743042
0.72047
0.697188
0.673252
0.648814
0.623979
0.598861
0.573572
0.548226
0.522933
0.497798
0.47292
0.448391
0.424294
0.400705
0.377689
0.355301
0.33359
0.312591
0.292336
0.272844
0.25413
0.236201
0.219056
0.202691
0.187095
0.172263
0.158172
0.144802
0.132132
0.120141
0.108803
0.0980941
0.0879887
0.078462
0.0694899
0.0610493
0.0531195
0.0456826
0.0387249
0.0322656
0.0263995
0.0208669
0.0158429
0.0113926
0.00762328
0.00471043
0.00288869
0.00175568
0.0010553
0.000626278
0.000366428
0.000211095
0.000119594
6.65531e-05
3.63371e-05
1.94422e-05
1.01822e-05
5.21322e-06
2.60616e-06
1.27046e-06
6.03641e-07
2.79275e-07
1.257e-07
5.5e-08
2.33806e-08
9.65258e-09
3.86952e-09
1.5064e-09
5.69717e-10
2.09463e-10
7.49475e-11
2.61517e-11
8.94796e-12
3.04084e-12
1.04412e-12
3.52754e-13
8.02347e-14
0.998478
0.995041
0.991165
0.986799
0.98189
0.976383
0.970218
0.963338
0.955683
0.947195
0.937818
0.927498
0.91619
0.903851
0.890449
0.875962
0.860377
0.843695
0.825929
0.807105
0.787265
0.766461
0.744762
0.722245
0.699
0.675116
0.65071
0.625892
0.600776
0.575475
0.550103
0.524771
0.499585
0.474646
0.450045
0.425869
0.402193
0.379084
0.356599
0.334787
0.313687
0.293329
0.273736
0.254922
0.236894
0.219656
0.203203
0.18752
0.172601
0.15843
0.144986
0.132249
0.120195
0.1088
0.0980394
0.0878873
0.0783192
0.0693106
0.0608386
0.0528823
0.0454236
0.038449
0.031987
0.026114
0.0205738
0.0155591
0.0111341
0.00740956
0.00456884
0.00279905
0.00169917
0.00101996
0.000604391
0.000353036
0.000203014
0.000114791
6.37463e-05
3.47261e-05
1.85353e-05
9.68214e-06
4.9436e-06
2.46415e-06
1.19763e-06
5.67276e-07
2.61615e-07
1.1737e-07
5.11873e-08
2.16893e-08
8.92592e-09
3.56732e-09
1.38477e-09
5.22339e-10
1.91596e-10
6.84196e-11
2.38385e-11
8.15037e-12
2.7705e-12
9.52075e-13
3.21985e-13
7.34297e-14
0.998494
0.995093
0.991257
0.986937
0.98208
0.976629
0.970529
0.963718
0.95614
0.947733
0.938444
0.928217
0.917006
0.904768
0.89147
0.877087
0.861608
0.84503
0.827365
0.808638
0.788888
0.768168
0.746542
0.724087
0.70086
0.67704
0.652676
0.627881
0.602771
0.57746
0.552065
0.526695
0.501458
0.476456
0.451783
0.427524
0.403758
0.380552
0.357966
0.336049
0.314841
0.294374
0.274671
0.255749
0.237615
0.220273
0.203719
0.187943
0.172936
0.15868
0.145158
0.132347
0.120225
0.108767
0.0979499
0.0877468
0.0781332
0.0690845
0.0605779
0.0525923
0.0451099
0.0381171
0.031656
0.0257798
0.020242
0.0152418
0.0108474
0.00717547
0.0044194
0.00270393
0.00163895
0.000982149
0.000580914
0.000338646
0.000194321
0.000109624
6.07273e-05
3.29952e-05
1.75627e-05
9.1472e-06
4.65603e-06
2.31324e-06
1.12057e-06
5.28971e-07
2.43104e-07
1.08683e-07
4.72335e-08
1.99451e-08
8.18071e-09
3.25907e-09
1.26136e-09
4.74498e-10
1.73632e-10
6.18798e-11
2.15282e-11
7.3554e-12
2.50111e-12
8.60057e-13
2.91145e-13
6.66164e-14
0.998509
0.995142
0.991346
0.98707
0.982261
0.976866
0.970826
0.964083
0.956577
0.94825
0.939045
0.928908
0.917791
0.905652
0.892455
0.878176
0.8628
0.846325
0.82876
0.81013
0.790473
0.769838
0.74829
0.725907
0.702761
0.678967
0.654625
0.629844
0.604736
0.579414
0.553994
0.528587
0.503301
0.478238
0.453493
0.429153
0.405298
0.381997
0.359309
0.337286
0.315971
0.295395
0.275583
0.256552
0.238312
0.220867
0.204206
0.188338
0.173241
0.1589
0.145298
0.132412
0.120221
0.108701
0.0978257
0.087571
0.0779114
0.0688225
0.0602814
0.052267
0.0447615
0.0377519
0.0312963
0.0254194
0.0198875
0.0149052
0.010545
0.00692994
0.00426405
0.00260556
0.00157693
0.000943357
0.000556904
0.000323973
0.000185483
0.000104385
5.76758e-05
3.12511e-05
1.6586e-05
8.612e-06
4.36947e-06
2.1635e-06
1.04445e-06
4.91315e-07
2.24997e-07
1.0023e-07
4.34052e-08
1.82648e-08
7.46642e-09
2.96505e-09
1.14416e-09
4.29253e-10
1.56703e-10
5.57344e-11
1.93612e-11
6.61134e-12
2.24917e-12
7.73902e-13
2.62231e-13
6.0246e-14
0.998523
0.995189
0.991428
0.987193
0.98243
0.977086
0.971103
0.964421
0.956983
0.94873
0.939604
0.929551
0.918523
0.906476
0.893375
0.879194
0.863916
0.847538
0.830069
0.811531
0.79196
0.771404
0.749925
0.727578
0.704507
0.680765
0.656458
0.631696
0.606592
0.581262
0.555819
0.530377
0.505044
0.479922
0.455109
0.430691
0.40675
0.383357
0.360572
0.338448
0.317028
0.296347
0.276429
0.257294
0.238951
0.221405
0.204652
0.188689
0.173503
0.159079
0.145398
0.13244
0.120182
0.108601
0.0976705
0.0873663
0.077663
0.0685361
0.0599625
0.0519214
0.044395
0.0373705
0.0309246
0.0250493
0.0195255
0.0145632
0.0102388
0.00668229
0.00410794
0.00250712
0.00151513
0.000904861
0.000533176
0.000309531
0.000176819
9.92693e-05
5.47083e-05
2.95621e-05
1.56441e-05
8.09814e-06
4.09557e-06
2.02105e-06
9.72389e-07
4.55837e-07
2.08021e-07
9.23436e-08
3.98517e-08
1.67128e-08
6.80971e-09
2.69591e-09
1.03733e-09
3.8816e-10
1.41376e-10
5.01855e-11
1.74087e-11
5.94237e-12
2.02288e-12
6.96417e-13
2.36151e-13
5.43972e-14
0.998536
0.995231
0.991504
0.987305
0.982584
0.977286
0.971354
0.964729
0.957353
0.949167
0.940113
0.930137
0.919191
0.907229
0.894215
0.880124
0.864937
0.84865
0.83127
0.812819
0.79333
0.772853
0.751448
0.729179
0.706144
0.682435
0.658152
0.633404
0.608303
0.582964
0.5575
0.532024
0.506647
0.48147
0.456592
0.432101
0.40808
0.384599
0.361722
0.339503
0.317986
0.297205
0.277188
0.257954
0.239514
0.221869
0.205029
0.18898
0.173712
0.15921
0.145456
0.13243
0.120111
0.108472
0.0974909
0.0871412
0.0773977
0.0682363
0.0596335
0.0515687
0.0440242
0.0369875
0.0305551
0.0246831
0.0191687
0.0142271
0.00993894
0.0064403
0.0039558
0.00241148
0.00145529
0.000867727
0.000510375
0.000295708
0.000168559
9.44129e-05
5.19029e-05
2.79722e-05
1.47614e-05
7.6187e-06
3.84119e-06
1.88938e-06
9.06092e-07
4.23356e-07
1.92554e-07
8.51922e-08
3.66443e-08
1.53183e-08
6.22221e-09
2.45613e-09
9.42497e-10
3.51807e-10
1.27856e-10
4.53026e-11
1.56932e-11
5.35345e-12
1.82399e-12
6.28255e-13
2.13135e-13
4.91016e-14
0.998548
0.995269
0.991571
0.987406
0.982723
0.977466
0.97158
0.965006
0.957685
0.949559
0.94057
0.930663
0.91979
0.907905
0.894971
0.880961
0.865856
0.849651
0.832352
0.813977
0.794561
0.774149
0.752788
0.730589
0.707606
0.683936
0.65968
0.634947
0.609848
0.5845
0.559016
0.53351
0.50809
0.482862
0.457924
0.433366
0.409269
0.385709
0.362747
0.34044
0.318832
0.29796
0.277851
0.258526
0.239998
0.22227
0.205344
0.189214
0.173869
0.159296
0.145475
0.132388
0.120012
0.108322
0.0972948
0.0869041
0.077125
0.067933
0.0593049
0.05122
0.0436609
0.0366155
0.0302022
0.0243321
0.0188267
0.0139055
0.0096525
0.0062097
0.00381112
0.00232076
0.0013987
0.000832723
0.000488957
0.000282771
0.000160858
8.99031e-05
4.93082e-05
2.65077e-05
1.39517e-05
7.18088e-06
3.60993e-06
1.77022e-06
8.46365e-07
3.94226e-07
1.78745e-07
7.88363e-08
3.38061e-08
1.40895e-08
5.7066e-09
2.24647e-09
8.59867e-10
3.20227e-10
1.16142e-10
4.10815e-11
1.42128e-11
4.84518e-12
1.65108e-12
5.69014e-13
1.93126e-13
4.44928e-14
0.998558
0.995303
0.991632
0.987496
0.982845
0.977625
0.97178
0.965251
0.957979
0.949906
0.940974
0.93113
0.920321
0.908504
0.895641
0.881703
0.866672
0.850541
0.833314
0.815011
0.795663
0.775317
0.754023
0.731863
0.708917
0.685276
0.661041
0.636319
0.611222
0.585865
0.560362
0.534827
0.509369
0.484094
0.459101
0.43448
0.410316
0.386681
0.363643
0.341255
0.319565
0.298609
0.278417
0.259009
0.240397
0.222593
0.205593
0.189392
0.173979
0.159342
0.145462
0.13232
0.119893
0.108158
0.0970899
0.0866634
0.076853
0.0676344
0.0589843
0.0508819
0.0433099
0.0362563
0.0298618
0.0239975
0.0185032
0.0136027
0.00938377
0.00599403
0.00367609
0.00223632
0.00134618
0.00080034
0.000469209
0.000270884
0.000153808
8.57893e-05
4.69504e-05
2.51822e-05
1.32219e-05
6.7878e-06
3.40317e-06
1.66414e-06
7.93422e-07
3.68514e-07
1.66608e-07
7.32729e-08
3.13318e-08
1.30224e-08
5.26047e-09
2.06568e-09
7.88838e-10
2.93156e-10
1.06125e-10
3.74791e-11
1.2952e-11
4.41258e-12
1.50366e-12
5.18476e-13
1.76046e-13
4.0557e-14
0.998567
0.995333
0.991685
0.987575
0.982953
0.977766
0.971956
0.965466
0.958237
0.950211
0.94133
0.931539
0.920787
0.90903
0.89623
0.882356
0.867389
0.851322
0.834158
0.815915
0.796623
0.77632
0.755085
0.732972
0.710063
0.686451
0.662235
0.637523
0.612427
0.587061
0.56154
0.535978
0.510486
0.485168
0.460125
0.435448
0.411222
0.387522
0.364413
0.341953
0.32019
0.29916
0.278894
0.259414
0.240732
0.222856
0.205788
0.189523
0.174049
0.159355
0.145423
0.132233
0.119762
0.107987
0.0968841
0.0864266
0.0765896
0.0673484
0.0586798
0.050563
0.0429805
0.0359206
0.0295467
0.0236874
0.0182036
0.013323
0.00913625
0.005796
0.00355233
0.00215909
0.00129827
0.000770878
0.000451295
0.000260135
0.000147454
8.20947e-05
4.48404e-05
2.40003e-05
1.25735e-05
6.43993e-06
3.22087e-06
1.57104e-06
7.47137e-07
3.46122e-07
1.56078e-07
6.84643e-08
2.92009e-08
1.21065e-08
4.87887e-09
1.91152e-09
7.28439e-10
2.70194e-10
9.76477e-11
3.44353e-11
1.18872e-11
4.04772e-12
1.37936e-12
4.75863e-13
1.61639e-13
3.72366e-14
0.998575
0.995359
0.991731
0.987644
0.983047
0.977887
0.972108
0.965653
0.958461
0.950476
0.941638
0.931894
0.921192
0.909487
0.896741
0.882922
0.868012
0.852001
0.834894
0.816706
0.797468
0.777218
0.75602
0.733941
0.711061
0.687471
0.66327
0.638566
0.61347
0.588096
0.562559
0.536972
0.511448
0.486092
0.461004
0.436277
0.411996
0.388237
0.365067
0.342543
0.320714
0.299618
0.279285
0.259739
0.240996
0.22306
0.205934
0.189612
0.174087
0.159344
0.145366
0.132134
0.119626
0.107817
0.0966841
0.0862005
0.0763412
0.0670815
0.058398
0.05027
0.0426802
0.0356171
0.0292546
0.023402
0.0179296
0.0130684
0.00891171
0.00561708
0.00344068
0.00208956
0.00125524
0.000744487
0.000435294
0.000250562
0.000141813
7.88249e-05
4.29791e-05
2.29612e-05
1.20054e-05
6.13621e-06
3.06226e-06
1.49038e-06
7.07174e-07
3.26856e-07
1.47049e-07
6.43552e-08
2.73859e-08
1.1329e-08
4.55583e-09
1.78137e-09
6.77579e-10
2.50903e-10
9.05388e-11
3.18874e-11
1.0997e-11
3.74305e-12
1.2756e-12
4.40293e-13
1.49612e-13
3.44642e-14
0.998582
0.995381
0.99177
0.987703
0.983128
0.977992
0.97224
0.965813
0.958654
0.950703
0.941903
0.932199
0.92154
0.909879
0.897179
0.883408
0.868546
0.852583
0.835522
0.817377
0.798177
0.777974
0.756815
0.734768
0.711914
0.688344
0.664156
0.639458
0.614361
0.588979
0.563427
0.537819
0.512266
0.486876
0.461749
0.436978
0.412648
0.388838
0.365614
0.343035
0.321149
0.299996
0.279608
0.260006
0.241207
0.223218
0.20604
0.189671
0.1741
0.159315
0.145298
0.132031
0.119491
0.107654
0.0964956
0.0859903
0.0761127
0.0668379
0.0581427
0.0500063
0.0424116
0.0353472
0.0289889
0.0231441
0.0176833
0.0128404
0.00871145
0.00545812
0.00334163
0.002028
0.00121722
0.000721231
0.000421232
0.000242173
0.000136883
7.59764e-05
4.13625e-05
2.20616e-05
1.15151e-05
5.8749e-06
2.92623e-06
1.42143e-06
6.73122e-07
3.10491e-07
1.39404e-07
6.0886e-08
2.58581e-08
1.06762e-08
4.28535e-09
1.67267e-09
6.35192e-10
2.34857e-10
8.46365e-11
2.97751e-11
1.02601e-11
3.49112e-12
1.18984e-12
4.10896e-13
1.39672e-13
3.21728e-14
0.998588
0.9954
0.991804
0.987753
0.983196
0.978081
0.972351
0.965949
0.958817
0.950896
0.942127
0.932457
0.921834
0.910211
0.89755
0.88382
0.868999
0.853077
0.836057
0.817954
0.798793
0.77862
0.757489
0.735468
0.712635
0.68908
0.664904
0.64021
0.615112
0.589722
0.564156
0.538529
0.512952
0.487532
0.46237
0.437561
0.41319
0.389336
0.366065
0.343438
0.321503
0.300302
0.279865
0.260215
0.241369
0.223335
0.206115
0.189705
0.174096
0.159275
0.145226
0.131929
0.119362
0.107502
0.0963228
0.0857998
0.0759073
0.0666204
0.057916
0.0497731
0.0421748
0.0351097
0.0287548
0.0229173
0.0174669
0.0126407
0.00853639
0.00531927
0.00325535
0.00197453
0.0011843
0.000701151
0.000409125
0.000234971
0.000132663
7.35441e-05
3.99859e-05
2.12975e-05
1.10998e-05
5.65415e-06
2.81163e-06
1.36349e-06
6.44583e-07
2.96812e-07
1.3303e-07
5.80008e-08
2.45905e-08
1.01359e-08
4.06196e-09
1.58307e-09
6.00321e-10
2.21678e-10
7.9796e-11
2.80452e-11
9.65725e-12
3.28527e-12
1.1198e-12
3.8689e-13
1.31555e-13
3.03016e-14
0.998593
0.995416
0.991832
0.987794
0.983253
0.978154
0.972443
0.966062
0.958953
0.951056
0.942314
0.932672
0.922079
0.910487
0.897859
0.884162
0.869374
0.853486
0.836499
0.818427
0.799298
0.779154
0.758048
0.736047
0.713232
0.689691
0.665522
0.640832
0.615732
0.590335
0.564758
0.539114
0.513516
0.488071
0.46288
0.438038
0.413632
0.38974
0.36643
0.343763
0.321787
0.300543
0.280065
0.260376
0.241492
0.223421
0.206165
0.189721
0.17408
0.159231
0.145155
0.131834
0.119245
0.107365
0.0961693
0.085632
0.0757276
0.0664313
0.0577197
0.0495721
0.0419715
0.0349068
0.0285563
0.0227247
0.0172837
0.0124714
0.00838799
0.00520135
0.00318255
0.00192962
0.00115674
0.000684385
0.000399037
0.00022898
0.000129158
7.15274e-05
3.88463e-05
2.0666e-05
1.07571e-05
5.47229e-06
2.71737e-06
1.31592e-06
6.21197e-07
2.85622e-07
1.27825e-07
5.56494e-08
2.35593e-08
9.69713e-09
3.88083e-09
1.51054e-09
5.72131e-10
2.11039e-10
7.58926e-11
2.66518e-11
9.17214e-12
3.11978e-12
1.0635e-12
3.67602e-13
1.25033e-13
2.8798e-14
0.998597
0.995428
0.991854
0.987828
0.983299
0.978214
0.972519
0.966154
0.959063
0.951186
0.942465
0.932846
0.922277
0.910711
0.898109
0.884439
0.869679
0.853818
0.836856
0.818809
0.799706
0.779584
0.758499
0.736516
0.713714
0.690183
0.666021
0.641334
0.616232
0.59083
0.565243
0.539585
0.513969
0.488503
0.463288
0.43842
0.413985
0.390062
0.36672
0.344019
0.32201
0.300733
0.280222
0.2605
0.241584
0.223482
0.206197
0.189726
0.17406
0.159186
0.145089
0.131748
0.119142
0.107247
0.0960378
0.0854891
0.0755754
0.0662717
0.0575547
0.0494035
0.0418012
0.0347369
0.0283896
0.0225645
0.0171326
0.0123334
0.00826958
0.00511212
0.00312663
0.00189475
0.00113518
0.000671192
0.000391066
0.000224232
0.000126375
6.99233e-05
3.79389e-05
2.01629e-05
1.04841e-05
5.32741e-06
2.64232e-06
1.27807e-06
6.02599e-07
2.76732e-07
1.23694e-07
5.37848e-08
2.27424e-08
9.34992e-09
3.73766e-09
1.45326e-09
5.49893e-10
2.02652e-10
7.28179e-11
2.55547e-11
8.79049e-12
2.9897e-12
1.01927e-12
3.52449e-13
1.1991e-13
2.76167e-14
0.9986
0.995438
0.991872
0.987855
0.983335
0.978261
0.972578
0.966226
0.959149
0.951287
0.942584
0.932983
0.922432
0.910886
0.898305
0.884656
0.869917
0.854078
0.837138
0.819112
0.800027
0.779922
0.758851
0.736882
0.714091
0.690568
0.666411
0.641725
0.616621
0.591214
0.565619
0.53995
0.51432
0.488837
0.463603
0.438714
0.414256
0.390308
0.366941
0.344214
0.322179
0.300876
0.280338
0.260591
0.24165
0.223524
0.206216
0.189724
0.174038
0.159146
0.145032
0.131676
0.119057
0.10715
0.0959302
0.0853729
0.0754521
0.0661428
0.0574218
0.049268
0.0416648
0.0346012
0.0282569
0.0224369
0.0170124
0.012225
0.00817825
0.00504603
0.00308504
0.00186871
0.00111901
0.00066126
0.000385045
0.000220636
0.000124261
6.87028e-05
3.72475e-05
1.97791e-05
1.02756e-05
5.21671e-06
2.58495e-06
1.24913e-06
5.88382e-07
2.69937e-07
1.20538e-07
5.2361e-08
2.2119e-08
9.08507e-09
3.62851e-09
1.40962e-09
5.32958e-10
1.96269e-10
7.04789e-11
2.47204e-11
8.50043e-12
2.89091e-12
9.85678e-13
3.40943e-13
1.1602e-13
2.67198e-14
0.998602
0.995446
0.991885
0.987874
0.983362
0.978296
0.972621
0.966279
0.959213
0.951362
0.942671
0.933083
0.922547
0.911015
0.898449
0.884815
0.870093
0.854269
0.837345
0.819333
0.800262
0.78017
0.759111
0.73715
0.714367
0.69085
0.666696
0.642011
0.616907
0.591496
0.565894
0.540217
0.514577
0.489081
0.463833
0.438928
0.414453
0.390487
0.367101
0.344355
0.3223
0.300977
0.280421
0.260654
0.241695
0.223551
0.206227
0.189719
0.174018
0.159113
0.144987
0.13162
0.118991
0.107075
0.0958482
0.0852847
0.0753587
0.0660455
0.0573216
0.0491662
0.0415625
0.0344997
0.028158
0.0223421
0.0169236
0.0121451
0.00811165
0.00499897
0.00305543
0.00185016
0.00110748
0.000654169
0.00038074
0.000218061
0.000122745
6.78268e-05
3.67506e-05
1.9503e-05
1.01255e-05
5.13698e-06
2.54361e-06
1.22827e-06
5.78134e-07
2.65039e-07
1.18263e-07
5.13349e-08
2.16698e-08
8.8943e-09
3.54992e-09
1.37821e-09
5.20772e-10
1.91678e-10
6.87968e-11
2.41205e-11
8.29196e-12
2.81995e-12
9.61555e-13
3.32682e-13
1.13227e-13
2.60756e-14
0.998604
0.995451
0.991894
0.987887
0.983379
0.978319
0.972649
0.966314
0.959254
0.951412
0.942728
0.933149
0.922622
0.9111
0.898544
0.88492
0.870208
0.854394
0.83748
0.819479
0.800416
0.780332
0.759281
0.737327
0.714549
0.691035
0.666883
0.642199
0.617094
0.59168
0.566075
0.540392
0.514745
0.489241
0.463983
0.439067
0.414581
0.390604
0.367205
0.344446
0.322378
0.301043
0.280473
0.260694
0.241723
0.223568
0.206233
0.189714
0.174004
0.15909
0.144956
0.131582
0.118946
0.107025
0.0957929
0.0852253
0.0752961
0.0659802
0.0572544
0.0490978
0.0414936
0.034433
0.0280928
0.0222796
0.0168651
0.0120927
0.0080682
0.00496884
0.00303646
0.00183826
0.00110008
0.000649612
0.000377971
0.000216404
0.000121769
6.7262e-05
3.64301e-05
1.93248e-05
1.00286e-05
5.08547e-06
2.5169e-06
1.21479e-06
5.71508e-07
2.61873e-07
1.16792e-07
5.06714e-08
2.13794e-08
8.77099e-09
3.49913e-09
1.35791e-09
5.129e-10
1.88712e-10
6.77104e-11
2.37332e-11
8.15741e-12
2.77418e-12
9.45995e-13
3.27354e-13
1.11426e-13
2.56602e-14
0.998604
0.995453
0.991898
0.987893
0.983388
0.97833
0.972664
0.966331
0.959275
0.951436
0.942757
0.933182
0.922659
0.911142
0.89859
0.884972
0.870264
0.854456
0.837547
0.81955
0.800492
0.780412
0.759364
0.737413
0.714638
0.691125
0.666975
0.642291
0.617185
0.59177
0.566163
0.540477
0.514827
0.489319
0.464056
0.439135
0.414644
0.39066
0.367256
0.34449
0.322416
0.301074
0.280499
0.260713
0.241736
0.223575
0.206235
0.189711
0.173997
0.159078
0.14494
0.131562
0.118923
0.106999
0.0957652
0.0851956
0.0752648
0.0659477
0.0572209
0.0490638
0.0414593
0.0343999
0.0280605
0.0222487
0.0168362
0.0120669
0.00804693
0.00495435
0.0030273
0.00183251
0.00109649
0.0006474
0.000376626
0.000215597
0.000121294
6.6987e-05
3.6274e-05
1.9238e-05
9.98131e-06
5.06035e-06
2.50387e-06
1.20821e-06
5.68278e-07
2.60329e-07
1.16075e-07
5.03481e-08
2.12379e-08
8.71091e-09
3.47439e-09
1.34803e-09
5.09065e-10
1.87267e-10
6.71813e-11
2.35445e-11
8.09186e-12
2.75188e-12
9.38412e-13
3.24756e-13
1.10547e-13
2.54575e-14
0.998604
0.995453
0.991898
0.987893
0.983388
0.97833
0.972664
0.966331
0.959275
0.951436
0.942757
0.933182
0.922659
0.911142
0.89859
0.884972
0.870264
0.854456
0.837547
0.81955
0.800492
0.780412
0.759364
0.737413
0.714637
0.691125
0.666975
0.642291
0.617185
0.59177
0.566163
0.540477
0.514827
0.489319
0.464056
0.439135
0.414644
0.39066
0.367256
0.34449
0.322416
0.301074
0.280498
0.260713
0.241736
0.223575
0.206235
0.189711
0.173997
0.159078
0.14494
0.131562
0.118923
0.106999
0.0957652
0.0851956
0.0752648
0.0659477
0.0572209
0.0490638
0.0414593
0.0343999
0.0280605
0.0222487
0.0168362
0.0120669
0.00804693
0.00495435
0.0030273
0.00183251
0.00109649
0.0006474
0.000376626
0.000215597
0.000121294
6.6987e-05
3.6274e-05
1.9238e-05
9.98131e-06
5.06035e-06
2.50387e-06
1.20821e-06
5.68278e-07
2.60329e-07
1.16075e-07
5.03481e-08
2.12379e-08
8.71092e-09
3.47439e-09
1.34803e-09
5.09065e-10
1.87267e-10
6.71813e-11
2.35445e-11
8.09187e-12
2.75188e-12
9.38413e-13
3.24756e-13
1.10547e-13
2.54575e-14
0.998604
0.995451
0.991894
0.987887
0.983379
0.978319
0.972649
0.966314
0.959254
0.951412
0.942728
0.933149
0.922622
0.9111
0.898544
0.88492
0.870208
0.854394
0.83748
0.819479
0.800416
0.780332
0.759281
0.737327
0.714549
0.691035
0.666883
0.642199
0.617093
0.59168
0.566075
0.540392
0.514745
0.489241
0.463983
0.439067
0.414581
0.390604
0.367205
0.344446
0.322378
0.301043
0.280473
0.260694
0.241723
0.223568
0.206233
0.189714
0.174004
0.15909
0.144956
0.131582
0.118946
0.107024
0.0957929
0.0852253
0.075296
0.0659802
0.0572544
0.0490978
0.0414936
0.034433
0.0280928
0.0222796
0.0168651
0.0120927
0.00806821
0.00496885
0.00303647
0.00183827
0.00110008
0.000649613
0.000377972
0.000216404
0.000121769
6.72621e-05
3.64301e-05
1.93248e-05
1.00286e-05
5.08547e-06
2.5169e-06
1.21479e-06
5.71509e-07
2.61873e-07
1.16792e-07
5.06715e-08
2.13794e-08
8.771e-09
3.49914e-09
1.35792e-09
5.12901e-10
1.88712e-10
6.77106e-11
2.37332e-11
8.15743e-12
2.77418e-12
9.45996e-13
3.27354e-13
1.11426e-13
2.56602e-14
0.998602
0.995446
0.991885
0.987874
0.983362
0.978296
0.972621
0.966279
0.959213
0.951362
0.942671
0.933083
0.922547
0.911015
0.898449
0.884815
0.870092
0.854269
0.837345
0.819333
0.800262
0.78017
0.759111
0.73715
0.714367
0.69085
0.666696
0.642011
0.616906
0.591496
0.565894
0.540217
0.514577
0.489081
0.463833
0.438928
0.414453
0.390487
0.367101
0.344355
0.3223
0.300977
0.280421
0.260654
0.241695
0.223551
0.206227
0.189719
0.174018
0.159113
0.144987
0.13162
0.118991
0.107075
0.0958482
0.0852847
0.0753587
0.0660455
0.0573216
0.0491662
0.0415625
0.0344997
0.028158
0.0223422
0.0169236
0.0121452
0.00811166
0.00499897
0.00305544
0.00185017
0.00110748
0.00065417
0.00038074
0.000218061
0.000122746
6.78268e-05
3.67507e-05
1.9503e-05
1.01255e-05
5.13699e-06
2.54362e-06
1.22827e-06
5.78135e-07
2.6504e-07
1.18263e-07
5.1335e-08
2.16698e-08
8.89432e-09
3.54993e-09
1.37821e-09
5.20774e-10
1.91678e-10
6.8797e-11
2.41206e-11
8.29199e-12
2.81996e-12
9.61558e-13
3.32682e-13
1.13227e-13
2.60757e-14
0.9986
0.995438
0.991872
0.987855
0.983335
0.978261
0.972578
0.966226
0.959149
0.951287
0.942584
0.932983
0.922432
0.910886
0.898305
0.884656
0.869917
0.854078
0.837138
0.819112
0.800026
0.779922
0.758851
0.736882
0.714091
0.690568
0.66641
0.641725
0.616621
0.591214
0.565619
0.53995
0.51432
0.488837
0.463603
0.438714
0.414256
0.390308
0.366941
0.344214
0.322179
0.300876
0.280338
0.260591
0.241649
0.223524
0.206216
0.189724
0.174038
0.159146
0.145032
0.131676
0.119057
0.10715
0.0959302
0.0853729
0.0754521
0.0661428
0.0574218
0.049268
0.0416648
0.0346012
0.0282569
0.022437
0.0170125
0.012225
0.00817827
0.00504604
0.00308505
0.00186872
0.00111901
0.000661261
0.000385045
0.000220636
0.000124261
6.87029e-05
3.72476e-05
1.97791e-05
1.02756e-05
5.21672e-06
2.58496e-06
1.24913e-06
5.88384e-07
2.69938e-07
1.20538e-07
5.23612e-08
2.21191e-08
9.08511e-09
3.62853e-09
1.40963e-09
5.32961e-10
1.9627e-10
7.04793e-11
2.47205e-11
8.50047e-12
2.89093e-12
9.85683e-13
3.40945e-13
1.1602e-13
2.67198e-14
0.998597
0.995428
0.991854
0.987828
0.983299
0.978214
0.972519
0.966154
0.959063
0.951186
0.942465
0.932846
0.922277
0.910711
0.898109
0.884439
0.869679
0.853817
0.836856
0.818809
0.799706
0.779584
0.758499
0.736516
0.713714
0.690183
0.666021
0.641334
0.616232
0.59083
0.565242
0.539585
0.513969
0.488503
0.463288
0.438419
0.413985
0.390062
0.36672
0.344019
0.322009
0.300733
0.280222
0.2605
0.241584
0.223482
0.206197
0.189726
0.17406
0.159186
0.145089
0.131748
0.119142
0.107247
0.0960377
0.0854891
0.0755754
0.0662717
0.0575547
0.0494035
0.0418012
0.0347369
0.0283896
0.0225645
0.0171326
0.0123334
0.0082696
0.00511213
0.00312664
0.00189476
0.00113519
0.000671194
0.000391067
0.000224233
0.000126375
6.99235e-05
3.79391e-05
2.0163e-05
1.04841e-05
5.32744e-06
2.64233e-06
1.27807e-06
6.02602e-07
2.76733e-07
1.23695e-07
5.37852e-08
2.27426e-08
9.34999e-09
3.73769e-09
1.45327e-09
5.49897e-10
2.02654e-10
7.28186e-11
2.55549e-11
8.79057e-12
2.98973e-12
1.01928e-12
3.52451e-13
1.19911e-13
2.76169e-14
0.998593
0.995416
0.991832
0.987794
0.983253
0.978154
0.972443
0.966062
0.958953
0.951056
0.942314
0.932672
0.922079
0.910487
0.897859
0.884162
0.869374
0.853486
0.836499
0.818427
0.799298
0.779153
0.758047
0.736047
0.713232
0.68969
0.665522
0.640832
0.615732
0.590335
0.564758
0.539114
0.513516
0.488071
0.46288
0.438038
0.413632
0.38974
0.36643
0.343762
0.321787
0.300543
0.280065
0.260376
0.241492
0.223421
0.206165
0.189721
0.17408
0.159231
0.145155
0.131834
0.119245
0.107365
0.0961693
0.085632
0.0757276
0.0664313
0.0577197
0.0495721
0.0419715
0.0349068
0.0285563
0.0227247
0.0172838
0.0124715
0.00838802
0.00520138
0.00318256
0.00192963
0.00115675
0.000684388
0.000399039
0.000228981
0.000129159
7.15278e-05
3.88465e-05
2.06661e-05
1.07572e-05
5.47233e-06
2.71739e-06
1.31593e-06
6.21202e-07
2.85625e-07
1.27826e-07
5.565e-08
2.35595e-08
9.69724e-09
3.88087e-09
1.51055e-09
5.72139e-10
2.11041e-10
7.58936e-11
2.66522e-11
9.17227e-12
3.11982e-12
1.06352e-12
3.67607e-13
1.25035e-13
2.87983e-14
0.998588
0.9954
0.991804
0.987753
0.983196
0.978081
0.972351
0.965949
0.958817
0.950895
0.942127
0.932457
0.921834
0.910211
0.89755
0.88382
0.868999
0.853077
0.836057
0.817954
0.798793
0.77862
0.757489
0.735468
0.712635
0.68908
0.664903
0.64021
0.615111
0.589722
0.564156
0.538529
0.512952
0.487532
0.46237
0.437561
0.41319
0.389335
0.366065
0.343438
0.321503
0.300301
0.279865
0.260215
0.241369
0.223335
0.206115
0.189705
0.174096
0.159275
0.145226
0.131929
0.119362
0.107502
0.0963228
0.0857998
0.0759073
0.0666205
0.057916
0.0497732
0.0421748
0.0351097
0.0287548
0.0229173
0.017467
0.0126407
0.00853642
0.0053193
0.00325537
0.00197454
0.00118431
0.000701156
0.000409128
0.000234973
0.000132664
7.35447e-05
3.99863e-05
2.12978e-05
1.11e-05
5.65421e-06
2.81166e-06
1.3635e-06
6.44592e-07
2.96816e-07
1.33032e-07
5.80017e-08
2.45909e-08
1.01361e-08
4.06202e-09
1.5831e-09
6.00332e-10
2.21683e-10
7.97975e-11
2.80458e-11
9.65743e-12
3.28533e-12
1.11982e-12
3.86897e-13
1.31557e-13
3.03021e-14
0.998582
0.995381
0.99177
0.987703
0.983128
0.977992
0.97224
0.965813
0.958654
0.950703
0.941903
0.932199
0.92154
0.909879
0.897179
0.883408
0.868546
0.852583
0.835522
0.817377
0.798177
0.777974
0.756814
0.734768
0.711914
0.688343
0.664156
0.639458
0.614361
0.588979
0.563427
0.537819
0.512266
0.486876
0.461748
0.436977
0.412648
0.388838
0.365614
0.343034
0.321149
0.299996
0.279608
0.260006
0.241207
0.223218
0.20604
0.189671
0.1741
0.159315
0.145298
0.132031
0.119491
0.107654
0.0964956
0.0859903
0.0761127
0.0668379
0.0581427
0.0500063
0.0424116
0.0353473
0.028989
0.0231442
0.0176834
0.0128404
0.00871149
0.00545815
0.00334166
0.00202802
0.00121723
0.000721238
0.000421236
0.000242176
0.000136885
7.59773e-05
4.13631e-05
2.20619e-05
1.15153e-05
5.87499e-06
2.92628e-06
1.42145e-06
6.73134e-07
3.10497e-07
1.39407e-07
6.08873e-08
2.58586e-08
1.06765e-08
4.28545e-09
1.67271e-09
6.35208e-10
2.34863e-10
8.46386e-11
2.97759e-11
1.02603e-11
3.49121e-12
1.18987e-12
4.10906e-13
1.39675e-13
3.21735e-14
0.998575
0.995359
0.991731
0.987644
0.983047
0.977887
0.972108
0.965653
0.958461
0.950476
0.941638
0.931894
0.921192
0.909487
0.89674
0.882922
0.868012
0.852001
0.834894
0.816706
0.797468
0.777218
0.75602
0.733941
0.711061
0.687471
0.66327
0.638566
0.61347
0.588095
0.562558
0.536972
0.511448
0.486092
0.461003
0.436277
0.411996
0.388237
0.365067
0.342543
0.320714
0.299618
0.279285
0.259739
0.240996
0.22306
0.205934
0.189612
0.174087
0.159344
0.145366
0.132134
0.119626
0.107817
0.0966842
0.0862005
0.0763412
0.0670815
0.0583981
0.05027
0.0426803
0.0356171
0.0292546
0.023402
0.0179297
0.0130684
0.00891177
0.00561713
0.00344071
0.00208959
0.00125525
0.000744496
0.0004353
0.000250566
0.000141815
7.88261e-05
4.29798e-05
2.29617e-05
1.20057e-05
6.13633e-06
3.06232e-06
1.49041e-06
7.07191e-07
3.26864e-07
1.47053e-07
6.43569e-08
2.73867e-08
1.13293e-08
4.55596e-09
1.78142e-09
6.776e-10
2.5091e-10
9.05417e-11
3.18884e-11
1.09974e-11
3.74318e-12
1.27564e-12
4.40307e-13
1.49617e-13
3.44653e-14
0.998567
0.995333
0.991685
0.987575
0.982953
0.977765
0.971956
0.965466
0.958237
0.950211
0.94133
0.931539
0.920787
0.90903
0.896229
0.882355
0.867389
0.851322
0.834158
0.815915
0.796622
0.776319
0.755085
0.732972
0.710063
0.68645
0.662235