/*--------------------------------*- C++ -*----------------------------------*\
| =========                 |                                                 |
| \\      /  F ield         | OpenFOAM: The Open Source CFD Toolbox           |
|  \\    /   O peration     | Version:  2.3.x                                 |
|   \\  /    A nd           | Web:      www.OpenFOAM.org                      |
|    \\/     M anipulation  |                                                 |
\*---------------------------------------------------------------------------*/
FoamFile
{
    version     2.0;
    format      ascii;
    class       volScalarField;
    location    "0.5";
    object      CO2;
}
// * * * * * * * * * * * * * * * * * * * * * * * * * * * * * * * * * * * * * //

dimensions      [0 0 0 0 0 0 0];

internalField   nonuniform List<scalar> 
4000
(
0.000233199
0.000759751
0.00135372
0.00202278
0.002775
0.00361878
0.00456281
0.00561591
0.00678687
0.00808436
0.00951662
0.0110913
0.0128154
0.0146946
0.0167334
0.0189349
0.0213005
0.0238295
0.0265194
0.0293658
0.0323619
0.0354992
0.0387673
0.0421537
0.0456445
0.0492244
0.0528824
0.0565966
0.0603503
0.0641267
0.0679089
0.0716809
0.0754269
0.0791325
0.0827841
0.0863696
0.0898781
0.0933001
0.0966275
0.0998535
0.102973
0.105981
0.108876
0.111654
0.114317
0.116862
0.119292
0.121607
0.123809
0.125902
0.127887
0.129767
0.131546
0.133225
0.134808
0.136296
0.137688
0.138985
0.140181
0.141268
0.142231
0.143045
0.143668
0.144034
0.144067
0.143619
0.14247
0.140283
0.136536
0.130426
0.122921
0.114714
0.10624
0.0977736
0.0894877
0.0814905
0.0738479
0.0665993
0.0597666
0.0533605
0.0473845
0.0418372
0.0367137
0.0320118
0.0277213
0.0238295
0.0203216
0.0171808
0.0143886
0.0119246
0.00976704
0.00789278
0.00627778
0.00489748
0.0037273
0.00274296
0.00192067
0.00123707
0.000668273
0.00019283
0.000231725
0.00075495
0.00134518
0.00201008
0.00275769
0.00359641
0.00453489
0.00558194
0.00674638
0.00803686
0.00946168
0.0110286
0.0127444
0.0146151
0.0166453
0.0188382
0.021195
0.0237156
0.0263974
0.029236
0.0322251
0.0353562
0.0386191
0.0420018
0.0454911
0.0490729
0.0527257
0.0564378
0.0601915
0.0639695
0.0677548
0.0715308
0.0752819
0.0789934
0.0826516
0.0862444
0.0897606
0.0931906
0.0965262
0.0997606
0.102888
0.105905
0.108808
0.111594
0.114264
0.116817
0.119253
0.121574
0.123783
0.125882
0.127872
0.129757
0.13154
0.133223
0.134809
0.1363
0.137695
0.138993
0.14019
0.141278
0.142239
0.14305
0.143667
0.144025
0.144045
0.143575
0.142393
0.140155
0.136333
0.130142
0.122588
0.114351
0.105861
0.0973873
0.0891
0.0811058
0.0734698
0.0662305
0.0594093
0.0530167
0.0470561
0.0415258
0.0364206
0.0317387
0.0274692
0.0235992
0.0201134
0.016995
0.0142249
0.0117825
0.00964573
0.0077911
0.00619433
0.00483069
0.00367544
0.00270426
0.00189335
0.00121938
0.000658653
0.000190039
0.000229681
0.000748261
0.00133319
0.00199206
0.0027329
0.00356409
0.00449428
0.00553229
0.00668695
0.00796694
0.0093806
0.0109357
0.0126393
0.0144974
0.0165146
0.0186943
0.0210381
0.0235458
0.0262151
0.0290418
0.0320196
0.0351402
0.0383934
0.0417669
0.0452469
0.0488245
0.0524776
0.05619
0.0599449
0.0637255
0.0675148
0.0712964
0.0750545
0.0787743
0.0824422
0.0860454
0.089573
0.093015
0.0963632
0.0996104
0.102751
0.105781
0.108696
0.111495
0.114177
0.116742
0.11919
0.121523
0.123741
0.125848
0.127847
0.12974
0.13153
0.13322
0.134812
0.136308
0.137707
0.139008
0.140207
0.141294
0.142253
0.143058
0.143665
0.144007
0.144002
0.143491
0.142246
0.139914
0.135947
0.129628
0.121996
0.113714
0.105199
0.0967158
0.0884297
0.0804445
0.0728233
0.0656035
0.0588058
0.0524401
0.0465091
0.0410107
0.03594
0.0312943
0.0270623
0.0232304
0.0197829
0.0167024
0.0139694
0.0115627
0.00945963
0.00763646
0.00606853
0.00473086
0.00359859
0.00264736
0.00185346
0.00119368
0.000644765
0.000186028
0.000227353
0.000740665
0.00131961
0.0019717
0.00270491
0.00352759
0.00444838
0.0054761
0.00661959
0.00788757
0.00928845
0.0108301
0.0125196
0.014363
0.0163653
0.0185299
0.0208586
0.0233514
0.0260062
0.0288192
0.0317842
0.0348932
0.0381362
0.0415016
0.0449759
0.048546
0.0521941
0.0559039
0.0596586
0.063441
0.0672342
0.0710215
0.0747872
0.0785163
0.0821947
0.0858099
0.0893505
0.0928064
0.096169
0.0994312
0.102587
0.105632
0.108563
0.111377
0.114074
0.116652
0.119113
0.121459
0.123691
0.12581
0.127819
0.129722
0.131522
0.13322
0.134819
0.136321
0.137725
0.13903
0.140231
0.141318
0.142273
0.143071
0.143663
0.143982
0.143941
0.143375
0.142043
0.139579
0.13541
0.128946
0.121224
0.11289
0.104349
0.0958568
0.0875753
0.0796046
0.0720055
0.064814
0.0580494
0.0517208
0.0458303
0.0403751
0.0353505
0.0307525
0.0265691
0.0227861
0.0193873
0.0163543
0.0136671
0.0113039
0.00924175
0.00745623
0.00592247
0.00461529
0.00350979
0.00258163
0.00180729
0.00116389
0.000628639
0.00018136
0.000224988
0.000732955
0.00130584
0.0019511
0.00267662
0.00349072
0.004402
0.00541928
0.00655141
0.00780714
0.00919493
0.0107227
0.0123977
0.014226
0.0162129
0.0183618
0.0206747
0.0231519
0.0257916
0.02859
0.0315414
0.034638
0.0378701
0.0412263
0.0446978
0.0482583
0.0519002
0.0556066
0.0593604
0.0631442
0.0669409
0.0707339
0.0745072
0.0782455
0.0819349
0.0855624
0.0891164
0.0925867
0.0959646
0.0992425
0.102415
0.105476
0.108423
0.111253
0.113966
0.11656
0.119036
0.121396
0.12364
0.125772
0.127794
0.129708
0.131517
0.133224
0.134831
0.13634
0.13775
0.139058
0.140261
0.141347
0.142298
0.143086
0.14366
0.143953
0.143869
0.143237
0.141804
0.139185
0.134777
0.128161
0.120346
0.111958
0.10339
0.0948913
0.0866178
0.0786661
0.0710948
0.0639376
0.0572129
0.0509285
0.0450857
0.0396811
0.0347099
0.0301666
0.0260384
0.0223105
0.0189657
0.0159851
0.013348
0.0110321
0.0090137
0.00726825
0.00577055
0.00449534
0.0034177
0.00251347
0.00175936
0.00113293
0.000611861
0.000176499
0.000222707
0.000725525
0.0012926
0.0019313
0.00264947
0.00345535
0.00435754
0.00536481
0.00648602
0.00772995
0.00910507
0.0106194
0.0122802
0.0140939
0.0160656
0.0181991
0.0204966
0.0229584
0.025583
0.028367
0.0313046
0.0343884
0.0376088
0.0409541
0.0444137
0.0479702
0.0516088
0.0553131
0.0590666
0.062852
0.0666524
0.0704509
0.0742316
0.0779791
0.0816791
0.0853187
0.0888861
0.0923707
0.0957637
0.0990574
0.102245
0.105323
0.108286
0.111133
0.113861
0.116471
0.118963
0.121337
0.123595
0.125739
0.127772
0.129697
0.131517
0.133233
0.134848
0.136364
0.137779
0.139091
0.140295
0.14138
0.142326
0.143103
0.143658
0.143921
0.143792
0.143089
0.141548
0.138765
0.134105
0.127332
0.119421
0.110979
0.102386
0.0938824
0.0856198
0.0776905
0.0701504
0.0630315
0.0563506
0.0501144
0.0443233
0.0389729
0.0340586
0.0295732
0.025503
0.0218324
0.0185435
0.0156168
0.0130308
0.0107626
0.00878831
0.00708288
0.005621
0.00437736
0.00332718
0.00244645
0.00171217
0.00110241
0.000595313
0.000171701
0.000220578
0.000718596
0.00128026
0.00191287
0.00262422
0.0034225
0.00431625
0.00531423
0.00642529
0.00765822
0.00902153
0.0105233
0.0121709
0.0139707
0.0159281
0.018047
0.0203298
0.022777
0.0253873
0.0281575
0.0310823
0.0341543
0.0373644
0.0407044
0.0441527
0.0477014
0.0513348
0.0550363
0.058789
0.0625758
0.0663795
0.0701833
0.073971
0.0777272
0.0814375
0.0850887
0.0886689
0.0921673
0.0955749
0.0988837
0.102087
0.105181
0.10816
0.111022
0.113766
0.11639
0.118896
0.121284
0.123555
0.125712
0.127757
0.129693
0.131522
0.133247
0.13487
0.136392
0.137812
0.139128
0.140333
0.141416
0.142356
0.143122
0.143656
0.14389
0.143714
0.142939
0.14129
0.138341
0.133429
0.126499
0.118493
0.109998
0.101382
0.0928766
0.0846269
0.076722
0.0692151
0.0621362
0.0555007
0.0493142
0.0435759
0.0382807
0.0334239
0.0289967
0.0249845
0.0213708
0.0181371
0.0152631
0.0127269
0.0105051
0.00857332
0.00690633
0.00547871
0.00426519
0.00324112
0.00238271
0.00166727
0.00107334
0.000579539
0.000167126
0.000218633
0.000712268
0.001269
0.00189607
0.00260121
0.00339257
0.00427866
0.0052682
0.00637003
0.00759293
0.00894546
0.0104357
0.0120711
0.0138583
0.0158025
0.017908
0.0201771
0.0226108
0.0252078
0.0279651
0.0308775
0.0339378
0.0371367
0.040465
0.0439079
0.0474518
0.0510814
0.0547808
0.0585331
0.0623213
0.0661282
0.069937
0.0737313
0.0774958
0.0812158
0.0848779
0.0884701
0.0919815
0.0954027
0.0987258
0.101944
0.105052
0.108046
0.110923
0.113682
0.116321
0.11884
0.12124
0.123524
0.125692
0.127748
0.129694
0.131532
0.133265
0.134895
0.136423
0.137847
0.139166
0.140372
0.141453
0.142387
0.143142
0.143655
0.14386
0.143637
0.142793
0.141038
0.137928
0.13277
0.125689
0.117593
0.109049
0.100412
0.0919063
0.0836709
0.0757913
0.0683181
0.0612794
0.0546891
0.0485517
0.0428654
0.0376241
0.0328234
0.0284525
0.0244961
0.020937
0.017756
0.0149322
0.0124432
0.010265
0.00837313
0.00674209
0.00534644
0.00416095
0.00316114
0.00232347
0.0016255
0.0010463
0.000564849
0.000162866
0.000216883
0.000706576
0.00125887
0.00188097
0.00258055
0.00336571
0.00424493
0.00522691
0.00632046
0.00753438
0.00887722
0.0103571
0.0119816
0.0137572
0.0156896
0.0177829
0.0200398
0.0224612
0.0250462
0.0277919
0.0306935
0.0337441
0.0369365
0.0402543
0.0436893
0.0472273
0.050853
0.0545502
0.0583021
0.0620916
0.0659015
0.0697149
0.0735154
0.0772875
0.0810165
0.0846888
0.0882921
0.0918155
0.0952495
0.0985857
0.101818
0.104939
0.107947
0.110838
0.113609
0.116261
0.118793
0.121205
0.1235
0.125679
0.127745
0.1297
0.131546
0.133287
0.134923
0.136456
0.137884
0.139205
0.140411
0.14149
0.142418
0.143161
0.143655
0.143831
0.143565
0.142654
0.140798
0.137536
0.132145
0.124921
0.116741
0.108152
0.0994975
0.0909928
0.0827726
0.0749183
0.0674782
0.0604787
0.0539321
0.0478418
0.0422051
0.0370152
0.0322675
0.0279497
0.0240457
0.0205377
0.0174058
0.0146286
0.0121831
0.0100453
0.00819006
0.00659201
0.00522561
0.00406574
0.00308808
0.00226933
0.00158736
0.00102158
0.000551418
0.00015897
0.000215328
0.000701518
0.00124988
0.00186756
0.0025622
0.00334188
0.00421501
0.00519029
0.00627651
0.00748246
0.00881671
0.0102874
0.0119022
0.0136676
0.0155894
0.0176719
0.0199177
0.0223281
0.0249023
0.0276374
0.0305288
0.0335694
0.0367517
0.0400637
0.0434934
0.047027
0.0506495
0.054345
0.0580967
0.0618875
0.0657002
0.0695179
0.0733242
0.0771033
0.0808405
0.0845221
0.0881356
0.09167
0.0951155
0.0984638
0.101708
0.104842
0.107862
0.110765
0.113549
0.116213
0.118755
0.121179
0.123484
0.125672
0.127747
0.12971
0.131563
0.13331
0.134952
0.136489
0.137921
0.139244
0.14045
0.141526
0.142448
0.14318
0.143655
0.143805
0.143497
0.142524
0.140574
0.137169
0.131562
0.124207
0.115951
0.107322
0.0986518
0.0901497
0.0819448
0.0741153
0.0667069
0.0597445
0.053239
0.0471929
0.0416026
0.0364604
0.0317619
0.0274931
0.0236374
0.0201762
0.0170891
0.0143544
0.0119485
0.00984713
0.0080251
0.00645683
0.00511681
0.00398001
0.00302228
0.00222056
0.00155299
0.000999311
0.000539314
0.000155459
0.00021396
0.000697069
0.00124197
0.00185577
0.00254608
0.00332094
0.00418875
0.00515815
0.00623794
0.0074369
0.00876361
0.0102263
0.0118325
0.013589
0.0155015
0.0175744
0.0198106
0.0222114
0.0247761
0.0275023
0.0303853
0.0334195
0.036593
0.0398979
0.043322
0.0468513
0.050471
0.054165
0.0579166
0.0617086
0.065524
0.0693457
0.0731572
0.0769427
0.0806874
0.0843773
0.0880001
0.0915444
0.0950002
0.0983593
0.101614
0.10476
0.107791
0.110705
0.113499
0.116173
0.118726
0.121159
0.123473
0.12567
0.127752
0.129722
0.131583
0.133335
0.134981
0.136523
0.137957
0.139281
0.140487
0.14156
0.142476
0.143199
0.143656
0.143782
0.143436
0.142405
0.140369
0.136833
0.13103
0.123555
0.11523
0.106565
0.097883
0.0893846
0.0811947
0.0733886
0.06601
0.059082
0.0526146
0.0466091
0.0410612
0.0359629
0.031309
0.0270846
0.0232724
0.0198534
0.0168067
0.01411
0.0117396
0.00967081
0.00787837
0.00633663
0.00502008
0.0039038
0.00296379
0.0021772
0.00152243
0.000979499
0.000528544
0.000152335
0.00021277
0.000693199
0.00123509
0.00184552
0.00253207
0.00330275
0.00416592
0.00513022
0.00620443
0.00739733
0.00871751
0.0101732
0.011772
0.0135207
0.0154251
0.0174897
0.0197175
0.0221098
0.0246662
0.0273841
0.0302589
0.0332851
0.0364532
0.0397531
0.0431728
0.0466988
0.0503162
0.054009
0.0577606
0.0615539
0.0653717
0.069197
0.0730133
0.0768045
0.0805559
0.0842533
0.0878843
0.0914373
0.0949025
0.0982711
0.101536
0.104691
0.107732
0.110656
0.11346
0.116143
0.118704
0.121146
0.123467
0.125672
0.127761
0.129737
0.131602
0.13336
0.13501
0.136554
0.137991
0.139316
0.140521
0.141592
0.142503
0.143216
0.143658
0.143761
0.14338
0.142297
0.140183
0.13653
0.130549
0.122969
0.114583
0.105888
0.0971951
0.0887009
0.0805254
0.0727412
0.0653899
0.0584933
0.0520603
0.0460915
0.0405817
0.035523
0.030909
0.0267242
0.0229507
0.0195691
0.0165581
0.013895
0.0115559
0.00951589
0.0077495
0.00623107
0.00493514
0.00383688
0.00291242
0.00213911
0.00149558
0.000962092
0.000519081
0.000149591
0.000211746
0.00068987
0.00122917
0.00183671
0.00252002
0.00328711
0.0041463
0.00510623
0.00617566
0.00736336
0.00867792
0.0101276
0.01172
0.0134621
0.0153595
0.0174171
0.0196377
0.0220229
0.0245723
0.0272837
0.030153
0.0331722
0.0363345
0.0396295
0.0430453
0.0465683
0.0501837
0.0538756
0.0576273
0.0614218
0.0652419
0.0690704
0.0728909
0.0766872
0.0804445
0.0841485
0.0877867
0.0913474
0.0948206
0.0981975
0.101471
0.104635
0.107684
0.110616
0.113428
0.116119
0.118688
0.121137
0.123465
0.125676
0.127771
0.129752
0.131622
0.133383
0.135037
0.136584
0.138022
0.139348
0.140552
0.14162
0.142526
0.143231
0.143659
0.143742
0.143331
0.142202
0.140018
0.13626
0.130124
0.12245
0.114011
0.10529
0.0965893
0.0880996
0.0799376
0.0721732
0.0648466
0.0579781
0.0515758
0.0456394
0.0401634
0.0351397
0.0305607
0.0264106
0.022671
0.0193221
0.0163423
0.0137085
0.0113966
0.00938158
0.0076378
0.0061396
0.00486154
0.00377888
0.00286791
0.0021061
0.00147231
0.000946999
0.000510875
0.000147211
0.000210878
0.000687047
0.00122415
0.00182923
0.00250981
0.00327385
0.00412968
0.00508591
0.00615128
0.00733458
0.0086444
0.010089
0.011676
0.0134124
0.015304
0.0173555
0.01957
0.021949
0.0244923
0.0271975
0.0300608
0.0330755
0.0362336
0.0395248
0.0429375
0.0464581
0.050072
0.0537632
0.0575151
0.0613107
0.0651328
0.0689642
0.0727883
0.0765891
0.0803515
0.0840612
0.0877056
0.091273
0.0947531
0.0981372
0.101418
0.104589
0.107646
0.110585
0.113404
0.116101
0.118677
0.121132
0.123466
0.125682
0.127781
0.129767
0.131641
0.133406
0.135062
0.136611
0.138051
0.139377
0.14058
0.141646
0.142547
0.143244
0.143661
0.143726
0.143288
0.142118
0.139875
0.136025
0.129754
0.122
0.113515
0.104772
0.096065
0.0875799
0.0794301
0.0716835
0.0643785
0.0575347
0.0511592
0.0452511
0.0398044
0.0348109
0.0302623
0.0261421
0.0224317
0.0191109
0.0161579
0.0135492
0.0112606
0.0092669
0.00754245
0.00606152
0.00479872
0.00372939
0.00282991
0.00207792
0.00145244
0.000934112
0.000503867
0.000145178
0.000210154
0.000684695
0.00121997
0.00182301
0.00250131
0.00326281
0.00411584
0.00506899
0.006131
0.00731064
0.00861651
0.0100569
0.0116395
0.0133712
0.0152579
0.0173044
0.0195138
0.0218878
0.0244262
0.0271267
0.0299853
0.0329958
0.0361501
0.0394381
0.0428482
0.0463669
0.0499795
0.0536702
0.0574223
0.0612189
0.0650428
0.0688767
0.0727039
0.0765085
0.0802752
0.0839898
0.0876395
0.0912125
0.0946985
0.0980886
0.101375
0.104553
0.107616
0.110561
0.113386
0.116089
0.11867
0.121129
0.123468
0.125688
0.127792
0.129781
0.131658
0.133425
0.135084
0.136635
0.138075
0.139401
0.140604
0.141667
0.142565
0.143255
0.143662
0.143712
0.14325
0.142046
0.139751
0.135825
0.129438
0.121616
0.113093
0.104332
0.0956205
0.0871398
0.0790009
0.0712697
0.0639835
0.0571608
0.0508081
0.0449242
0.0395024
0.0345346
0.0300116
0.0259167
0.0222309
0.0189338
0.0160032
0.0134157
0.0111466
0.00917085
0.0074626
0.00599614
0.00474613
0.00368794
0.0027981
0.00205431
0.0014358
0.000923317
0.000497996
0.000143476
0.000209566
0.000682784
0.00121658
0.00181795
0.0024944
0.00325385
0.0041046
0.00505525
0.00611453
0.0072912
0.00859388
0.0100308
0.0116098
0.0133377
0.0152205
0.017263
0.0194684
0.0218383
0.0243728
0.0270696
0.0299244
0.0329314
0.0360826
0.0393681
0.0427761
0.0462932
0.0499048
0.0535951
0.0573475
0.061145
0.0649703
0.0688063
0.0726362
0.0764439
0.0802142
0.0839328
0.0875868
0.0911643
0.0946552
0.0980503
0.101342
0.104524
0.107592
0.110542
0.113372
0.11608
0.118665
0.121129
0.123471
0.125695
0.127802
0.129794
0.131673
0.133443
0.135103
0.136655
0.138096
0.139422
0.140624
0.141685
0.142579
0.143263
0.143661
0.143697
0.143214
0.141978
0.139635
0.135636
0.129164
0.121292
0.112742
0.103967
0.0952532
0.086777
0.0786475
0.0709294
0.0636589
0.0568539
0.0505202
0.0446563
0.039255
0.0343083
0.0298065
0.0257323
0.0220668
0.0187891
0.0158769
0.0133066
0.0110536
0.00909245
0.00739743
0.00594279
0.0047032
0.00365412
0.00277214
0.00203505
0.00142222
0.000914506
0.000493203
0.000142086
0.000209106
0.000681287
0.00121392
0.00181399
0.00248899
0.00324683
0.00409581
0.0050445
0.00610164
0.007276
0.00857618
0.0100105
0.0115866
0.0133115
0.0151913
0.0172306
0.0194327
0.0217994
0.0243306
0.0270243
0.0298764
0.0328809
0.0360299
0.0393134
0.0427198
0.0462357
0.0498466
0.0535367
0.0572893
0.0610875
0.064914
0.0687516
0.0725836
0.0763939
0.080167
0.0838888
0.0875462
0.0911274
0.094622
0.098021
0.101317
0.104503
0.107575
0.110529
0.113362
0.116073
0.118662
0.121129
0.123475
0.125701
0.12781
0.129804
0.131686
0.133457
0.135119
0.136671
0.138113
0.139439
0.14064
0.1417
0.14259
0.143269
0.143659
0.143684
0.143183
0.141919
0.139535
0.135472
0.128939
0.12103
0.11246
0.103677
0.0949614
0.0864893
0.0783678
0.0706603
0.0634025
0.0566115
0.0502931
0.044445
0.03906
0.0341301
0.0296449
0.0255872
0.0219377
0.0186753
0.0157776
0.0132209
0.0109805
0.00903084
0.00734622
0.00590087
0.00466948
0.00362755
0.00275174
0.00201992
0.00141154
0.000907581
0.000489437
0.000140994
0.000208767
0.000680183
0.00121196
0.00181107
0.002485
0.00324165
0.00408932
0.00503658
0.00609215
0.00726479
0.00856313
0.00999545
0.0115695
0.0132923
0.0151697
0.0172067
0.0194065
0.0217709
0.0242998
0.0269912
0.0298412
0.0328438
0.0359911
0.0392732
0.0426784
0.0461935
0.0498039
0.0534938
0.0572466
0.0610454
0.0648728
0.0687117
0.0725453
0.0763573
0.0801326
0.0838568
0.0875167
0.0911006
0.0945981
0.0979999
0.101299
0.104488
0.107563
0.110519
0.113355
0.116069
0.11866
0.121129
0.123477
0.125706
0.127817
0.129813
0.131696
0.133468
0.13513
0.136684
0.138126
0.139452
0.140652
0.14171
0.142598
0.143273
0.143657
0.143673
0.143157
0.141873
0.139456
0.135344
0.128767
0.120832
0.112249
0.103459
0.0947438
0.0862751
0.0781597
0.0704604
0.0632121
0.0564317
0.0501246
0.0442883
0.0389155
0.0339981
0.0295253
0.0254798
0.0218421
0.0185911
0.0157042
0.0131575
0.0109264
0.00898529
0.00730837
0.00586988
0.00464455
0.00360791
0.00273666
0.00200873
0.00140365
0.000902462
0.000486652
0.000140187
0.000208543
0.000679457
0.00121067
0.00180915
0.00248237
0.00323825
0.00408506
0.00503136
0.0060859
0.00725742
0.00855455
0.00998558
0.0115583
0.0132796
0.0151556
0.017191
0.0193893
0.0217521
0.0242795
0.0269695
0.0298181
0.0328195
0.0359657
0.0392468
0.0426513
0.0461658
0.0497759
0.0534657
0.0572187
0.0610178
0.0648458
0.0686855
0.0725202
0.0763335
0.0801102
0.0838359
0.0874975
0.0910832
0.0945825
0.0979863
0.101287
0.104478
0.107555
0.110513
0.113351
0.116067
0.11866
0.12113
0.12348
0.125709
0.127821
0.129818
0.131702
0.133475
0.135138
0.136692
0.138134
0.13946
0.14066
0.141717
0.142604
0.143276
0.143656
0.143665
0.14314
0.14184
0.139401
0.135256
0.128651
0.1207
0.112108
0.103315
0.0945994
0.0861332
0.0780219
0.0703281
0.0630861
0.0563128
0.0500132
0.0441848
0.03882
0.0339109
0.0294464
0.0254089
0.021779
0.0185355
0.0156557
0.0131157
0.0108908
0.00895526
0.0072834
0.00584945
0.00462812
0.00359497
0.00272672
0.00200135
0.00139845
0.000899087
0.000484816
0.000139654
0.000208433
0.000679098
0.00121003
0.0018082
0.00248108
0.00323657
0.00408295
0.00502879
0.00608282
0.00725379
0.00855033
0.00998073
0.0115527
0.0132734
0.0151486
0.0171833
0.0193808
0.0217429
0.0242695
0.0269588
0.0298068
0.0328076
0.0359532
0.0392339
0.042638
0.0461523
0.0497622
0.0534519
0.057205
0.0610043
0.0648326
0.0686728
0.0725079
0.0763218
0.0800992
0.0838257
0.0874882
0.0910747
0.0945749
0.0979797
0.101281
0.104473
0.107551
0.11051
0.113349
0.116065
0.118659
0.121131
0.123481
0.125711
0.127824
0.129821
0.131705
0.133479
0.135142
0.136696
0.138139
0.139464
0.140664
0.141721
0.142606
0.143277
0.143655
0.143661
0.143131
0.141824
0.139374
0.135211
0.128593
0.120634
0.112038
0.103244
0.0945278
0.0860628
0.0779537
0.0702626
0.0630238
0.056254
0.0499581
0.0441337
0.0387729
0.0338678
0.0294074
0.0253739
0.0217479
0.0185081
0.0156318
0.0130951
0.0108732
0.00894044
0.00727109
0.00583937
0.00462
0.00358857
0.00272181
0.0019977
0.00139588
0.000897416
0.000483907
0.000139391
0.000208433
0.000679098
0.00121003
0.0018082
0.00248108
0.00323657
0.00408295
0.00502879
0.00608282
0.00725379
0.00855033
0.00998073
0.0115527
0.0132734
0.0151486
0.0171833
0.0193808
0.0217429
0.0242695
0.0269588
0.0298068
0.0328076
0.0359532
0.0392339
0.042638
0.0461523
0.0497622
0.0534519
0.057205
0.0610043
0.0648326
0.0686728
0.0725079
0.0763218
0.0800992
0.0838257
0.0874882
0.0910747
0.0945749
0.0979797
0.101281
0.104473
0.107551
0.11051
0.113349
0.116065
0.118659
0.121131
0.123481
0.125711
0.127824
0.129821
0.131705
0.133479
0.135142
0.136696
0.138139
0.139464
0.140664
0.141721
0.142606
0.143277
0.143655
0.143661
0.143131
0.141824
0.139374
0.135211
0.128593
0.120634
0.112038
0.103244
0.0945278
0.0860628
0.0779537
0.0702626
0.0630238
0.056254
0.0499582
0.0441337
0.0387729
0.0338679
0.0294074
0.025374
0.0217479
0.0185081
0.0156318
0.0130951
0.0108732
0.00894044
0.00727109
0.00583937
0.00462001
0.00358857
0.00272181
0.0019977
0.00139588
0.000897417
0.000483907
0.000139391
0.000208543
0.000679457
0.00121067
0.00180915
0.00248237
0.00323825
0.00408506
0.00503136
0.0060859
0.00725742
0.00855455
0.00998558
0.0115583
0.0132796
0.0151556
0.017191
0.0193893
0.0217521
0.0242795
0.0269695
0.0298181
0.0328195
0.0359657
0.0392468
0.0426513
0.0461658
0.0497759
0.0534657
0.0572187
0.0610178
0.0648458
0.0686855
0.0725201
0.0763335
0.0801102
0.0838359
0.0874975
0.0910832
0.0945825
0.0979863
0.101287
0.104478
0.107555
0.110513
0.113351
0.116067
0.11866
0.12113
0.12348
0.125709
0.127821
0.129818
0.131702
0.133475
0.135138
0.136692
0.138134
0.13946
0.14066
0.141717
0.142604
0.143276
0.143656
0.143665
0.14314
0.14184
0.139401
0.135256
0.128651
0.1207
0.112108
0.103315
0.0945995
0.0861332
0.078022
0.0703281
0.0630862
0.0563129
0.0500132
0.0441848
0.03882
0.0339109
0.0294464
0.0254089
0.021779
0.0185355
0.0156557
0.0131157
0.0108908
0.00895527
0.00728341
0.00584946
0.00462812
0.00359497
0.00272672
0.00200135
0.00139845
0.000899088
0.000484817
0.000139654
0.000208767
0.000680183
0.00121196
0.00181107
0.002485
0.00324165
0.00408932
0.00503658
0.00609215
0.00726479
0.00856313
0.00999545
0.0115695
0.0132923
0.0151697
0.0172067
0.0194065
0.0217709
0.0242998
0.0269912
0.0298412
0.0328438
0.0359911
0.0392732
0.0426784
0.0461935
0.0498039
0.0534938
0.0572466
0.0610454
0.0648728
0.0687117
0.0725452
0.0763573
0.0801326
0.0838568
0.0875167
0.0911006
0.094598
0.0979999
0.101299
0.104488
0.107563
0.110519
0.113355
0.116069
0.11866
0.121129
0.123477
0.125706
0.127817
0.129813
0.131696
0.133468
0.13513
0.136684
0.138126
0.139452
0.140652
0.14171
0.142598
0.143273
0.143657
0.143673
0.143157
0.141873
0.139456
0.135344
0.128767
0.120832
0.112249
0.10346
0.0947439
0.0862752
0.0781598
0.0704605
0.0632122
0.0564318
0.0501246
0.0442884
0.0389155
0.0339981
0.0295254
0.0254799
0.0218421
0.0185911
0.0157042
0.0131576
0.0109264
0.00898531
0.00730838
0.00586989
0.00464456
0.00360792
0.00273666
0.00200873
0.00140366
0.000902464
0.000486653
0.000140187
0.000209106
0.000681287
0.00121392
0.00181399
0.00248899
0.00324683
0.00409581
0.0050445
0.00610164
0.007276
0.00857618
0.0100105
0.0115866
0.0133115
0.0151913
0.0172306
0.0194327
0.0217994
0.0243306
0.0270243
0.0298764
0.0328809
0.0360299
0.0393134
0.0427198
0.0462357
0.0498466
0.0535366
0.0572893
0.0610875
0.064914
0.0687516
0.0725836
0.0763938
0.080167
0.0838888
0.0875462
0.0911274
0.094622
0.098021
0.101317
0.104503
0.107575
0.110529
0.113362
0.116073
0.118662
0.121129
0.123475
0.125701
0.12781
0.129804
0.131686
0.133457
0.135119
0.136671
0.138113
0.139439
0.14064
0.1417
0.14259
0.143269
0.143659
0.143684
0.143183
0.141919
0.139535
0.135472
0.128939
0.12103
0.11246
0.103677
0.0949615
0.0864894
0.0783679
0.0706604
0.0634026
0.0566116
0.0502931
0.044445
0.03906
0.0341302
0.029645
0.0255873
0.0219377
0.0186753
0.0157776
0.013221
0.0109805
0.00903086
0.00734624
0.00590088
0.00466949
0.00362756
0.00275174
0.00201992
0.00141155
0.000907583
0.000489438
0.000140994
0.000209566
0.000682784
0.00121658
0.00181795
0.0024944
0.00325385
0.0041046
0.00505525
0.00611453
0.0072912
0.00859388
0.0100308
0.0116098
0.0133377
0.0152205
0.017263
0.0194684
0.0218383
0.0243728
0.0270696
0.0299244
0.0329314
0.0360826
0.0393681
0.042776
0.0462932
0.0499048
0.0535951
0.0573475
0.061145
0.0649703
0.0688062
0.0726361
0.0764439
0.0802141
0.0839328
0.0875868
0.0911643
0.0946551
0.0980502
0.101342
0.104524
0.107592
0.110542
0.113372
0.11608
0.118665
0.121128
0.123471
0.125695
0.127802
0.129794
0.131673
0.133443
0.135103
0.136655
0.138096
0.139422
0.140624
0.141685
0.142579
0.143263
0.143661
0.143697
0.143214
0.141978
0.139635
0.135636
0.129164
0.121292
0.112742
0.103967
0.0952533
0.0867771
0.0786476
0.0709296
0.0636591
0.056854
0.0505203
0.0446564
0.039255
0.0343084
0.0298065
0.0257324
0.0220668
0.0187892
0.015877
0.0133067
0.0110536
0.00909248
0.00739745
0.00594281
0.00470322
0.00365413
0.00277214
0.00203506
0.00142222
0.000914508
0.000493205
0.000142086
0.000210154
0.000684695
0.00121997
0.00182301
0.00250131
0.00326281
0.00411584
0.00506899
0.006131
0.00731064
0.00861651
0.0100569
0.0116395
0.0133712
0.0152579
0.0173044
0.0195138
0.0218878
0.0244262
0.0271267
0.0299853
0.0329958
0.0361501
0.0394381
0.0428482
0.0463669
0.0499795
0.0536701
0.0574223
0.0612189
0.0650427
0.0688766
0.0727039
0.0765085
0.0802752
0.0839898
0.0876395
0.0912124
0.0946984
0.0980886
0.101375
0.104553
0.107616
0.110561
0.113386
0.116089
0.11867
0.121129
0.123468
0.125688
0.127792
0.129781
0.131658
0.133425
0.135084
0.136635
0.138075
0.139401
0.140604
0.141667
0.142565
0.143255
0.143662
0.143712
0.14325
0.142046
0.139751
0.135825
0.129438
0.121616
0.113094
0.104332
0.0956207
0.08714
0.079001
0.0712698
0.0639836
0.0571609
0.0508083
0.0449243
0.0395025
0.0345346
0.0300117
0.0259167
0.022231
0.0189339
0.0160033
0.0134157
0.0111467
0.00917088
0.00746262
0.00599616
0.00474614
0.00368796
0.00279811
0.00205432
0.0014358
0.00092332
0.000497997
0.000143476
0.000210878
0.000687047
0.00122415
0.00182923
0.00250981
0.00327385
0.00412968
0.0050859
0.00615128
0.00733458
0.0086444
0.010089
0.011676
0.0134124
0.015304
0.0173555
0.01957
0.021949
0.0244923
0.0271975
0.0300608
0.0330755
0.0362335
0.0395248
0.0429375
0.0464581
0.050072
0.0537632
0.0575151
0.0613107
0.0651328
0.0689642
0.0727883
0.0765891
0.0803514
0.0840612
0.0877056
0.091273
0.0947531
0.0981372
0.101418
0.104589
0.107646
0.110585
0.113404
0.116101
0.118677
0.121132
0.123466
0.125682
0.127781
0.129767
0.131641
0.133406
0.135062
0.136611
0.138051
0.139377
0.14058
0.141646
0.142547
0.143244
0.143661
0.143726
0.143288
0.142118
0.139875
0.136025
0.129754
0.122
0.113516
0.104772
0.0960652
0.0875801
0.0794302
0.0716836
0.0643787
0.0575348
0.0511593
0.0452512
0.0398045
0.034811
0.0302624
0.0261422
0.0224318
0.019111
0.0161579
0.0135492
0.0112606
0.00926693
0.00754248
0.00606154
0.00479874
0.0037294
0.00282992
0.00207792
0.00145245
0.000934116
0.000503869
0.000145179
0.000211746
0.00068987
0.00122917
0.00183671
0.00252002
0.00328711
0.0041463
0.00510623
0.00617566
0.00736335
0.00867792
0.0101276
0.01172
0.0134621
0.0153595
0.017417
0.0196377
0.0220229
0.0245723
0.0272837
0.030153
0.0331722
0.0363344
0.0396295
0.0430453
0.0465683
0.0501837
0.0538756
0.0576273
0.0614218
0.0652419
0.0690704
0.0728909
0.0766872
0.0804444
0.0841485
0.0877867
0.0913474
0.0948206
0.0981975
0.101471
0.104635
0.107684
0.110616
0.113428
0.116119
0.118688
0.121137
0.123465
0.125676
0.127771
0.129752
0.131622
0.133383
0.135037
0.136584
0.138022
0.139348
0.140552
0.14162
0.142526
0.143231
0.143659
0.143742
0.143331
0.142202
0.140018
0.13626
0.130124
0.12245
0.114011
0.10529
0.0965895
0.0880998
0.0799377
0.0721734
0.0648468
0.0579783
0.0515759
0.0456396
0.0401635
0.0351398
0.0305608
0.0264107
0.0226711
0.0193222
0.0163424
0.0137086
0.0113967
0.00938161
0.00763783
0.00613962
0.00486156
0.0037789
0.00286792
0.00210611
0.00147232
0.000947003
0.000510877
0.000147211
0.00021277
0.000693199
0.00123509
0.00184552
0.00253207
0.00330275
0.00416592
0.00513022
0.00620443
0.00739733
0.0087175
0.0101732
0.011772
0.0135207
0.0154251
0.0174897
0.0197175
0.0221098
0.0246662
0.0273841
0.0302589
0.0332851
0.0364532
0.0397531
0.0431728
0.0466988
0.0503162
0.054009
0.0577606
0.0615539
0.0653717
0.069197
0.0730133
0.0768045
0.0805559
0.0842533
0.0878843
0.0914373
0.0949025
0.0982711
0.101536
0.104691
0.107732
0.110656
0.11346
0.116143
0.118704
0.121146
0.123467
0.125672
0.127761
0.129737
0.131602
0.13336
0.13501
0.136554
0.137991
0.139316
0.140521
0.141592
0.142503
0.143216
0.143658
0.143761
0.14338
0.142297
0.140183
0.13653
0.13055
0.122969
0.114583
0.105888
0.0971954
0.0887011
0.0805256
0.0727414
0.0653901
0.0584935
0.0520605
0.0460916
0.0405819
0.0355231
0.0309091
0.0267242
0.0229508
0.0195692
0.0165582
0.0138951
0.011556
0.00951593
0.00774953
0.0062311
0.00493517
0.00383689
0.00291244
0.00213912
0.00149559
0.000962097
0.000519083
0.000149591
0.00021396
0.000697069
0.00124197
0.00185577
0.00254608
0.00332094
0.00418874
0.00515814
0.00623794
0.0074369
0.00876361
0.0102263
0.0118325
0.013589
0.0155015
0.0175744
0.0198106
0.0222114
0.0247761
0.0275023
0.0303853
0.0334195
0.036593
0.0398979
0.043322
0.0468513
0.050471
0.054165
0.0579166
0.0617086
0.065524
0.0693457
0.0731572
0.0769427
0.0806874
0.0843773
0.0880001
0.0915443
0.0950002
0.0983593
0.101614
0.10476
0.107791
0.110705
0.113499
0.116173
0.118726
0.121159
0.123473
0.12567
0.127752
0.129722
0.131583
0.133335
0.134981
0.136523
0.137957
0.139281
0.140487
0.14156
0.142477
0.143199
0.143656
0.143782
0.143436
0.142405
0.140369
0.136834