/*--------------------------------*- C++ -*----------------------------------*\
| =========                 |                                                 |
| \\      /  F ield         | OpenFOAM: The Open Source CFD Toolbox           |
|  \\    /   O peration     | Version:  2.3.x                                 |
|   \\  /    A nd           | Web:      www.OpenFOAM.org                      |
|    \\/     M anipulation  |                                                 |
\*---------------------------------------------------------------------------*/
FoamFile
{
    version     2.0;
    format      ascii;
    class       volScalarField;
    location    "0.5";
    object      dQ;
}
// * * * * * * * * * * * * * * * * * * * * * * * * * * * * * * * * * * * * * //

dimensions      [1 2 -3 0 0 0 0];

internalField   nonuniform List<scalar> 
4000
(
8.41376e-15
9.43262e-14
3.19659e-13
7.68006e-13
1.5644e-12
2.89576e-12
5.05121e-12
8.45742e-12
1.37639e-11
2.19399e-11
3.4441e-11
5.34524e-11
8.22447e-11
1.25698e-10
1.91087e-10
2.8921e-10
4.36031e-10
6.55024e-10
9.80504e-10
1.46226e-09
2.17189e-09
3.21144e-09
4.72469e-09
6.91354e-09
1.00573e-08
1.4537e-08
2.08716e-08
2.97437e-08
4.2056e-08
5.89847e-08
8.20504e-08
1.1321e-07
1.54982e-07
2.10625e-07
2.84404e-07
3.81993e-07
5.11095e-07
6.82415e-07
9.11177e-07
1.21953e-06
1.64039e-06
2.22365e-06
3.0464e-06
4.22992e-06
5.96827e-06
8.5768e-06
1.25744e-05
1.88214e-05
2.8746e-05
4.4703e-05
7.05102e-05
0.000112222
0.000179225
0.000285874
0.000454008
0.000716916
0.00112532
0.00175634
0.00272686
0.00421334
0.00648164
0.00993164
0.0151512
0.0228844
0.0345575
0.0526041
0.0799451
0.121663
0.184276
0.121472
0.075715
0.0469078
0.0287972
0.0174783
0.0104685
0.00617758
0.00358654
0.00204584
0.00114508
0.000628056
0.000337121
0.000176849
9.05314e-05
4.5191e-05
2.19718e-05
1.03931e-05
4.77799e-06
2.1329e-06
9.23855e-07
3.8808e-07
1.58054e-07
6.2412e-08
2.3903e-08
8.88544e-09
3.20971e-09
1.1265e-09
3.8275e-10
1.24932e-10
3.79119e-11
7.44459e-12
6.83828e-15
9.32297e-14
3.16597e-13
7.59447e-13
1.54589e-12
2.86325e-12
4.99226e-12
8.359e-12
1.3601e-11
2.16756e-11
3.40221e-11
5.27986e-11
8.12319e-11
1.24147e-10
1.8873e-10
2.85655e-10
4.30711e-10
6.47129e-10
9.68887e-10
1.44532e-09
2.14745e-09
3.17661e-09
4.67575e-09
6.84584e-09
9.96569e-09
1.44173e-08
2.07108e-08
2.95349e-08
4.17939e-08
5.86679e-08
8.16844e-08
1.12813e-07
1.5459e-07
2.10302e-07
2.84255e-07
3.82179e-07
5.1186e-07
6.84122e-07
9.14369e-07
1.22502e-06
1.64942e-06
2.23817e-06
3.06948e-06
4.26656e-06
6.02674e-06
8.67104e-06
1.27283e-05
1.90767e-05
2.91648e-05
4.54003e-05
7.16741e-05
0.000114154
0.0001824
0.00029103
0.00046214
0.000729726
0.00114538
0.00178758
0.00277523
0.0042879
0.00659617
0.0101072
0.0154178
0.0232916
0.0351848
0.0535461
0.0813755
0.123823
0.18526
0.119653
0.074578
0.0461934
0.0283486
0.0171978
0.0102944
0.00607054
0.00352152
0.00200689
0.00112211
0.00061475
0.000329558
0.000172639
8.82408e-05
4.39769e-05
2.13449e-05
1.00784e-05
4.6246e-06
2.06042e-06
8.90699e-07
3.73411e-07
1.51784e-07
5.9823e-08
2.2871e-08
8.48827e-09
3.06204e-09
1.07344e-09
3.64421e-10
1.18833e-10
3.60645e-11
7.08867e-12
7.45572e-15
9.17973e-14
3.12322e-13
7.4773e-13
1.52269e-12
2.81787e-12
4.91059e-12
8.21909e-12
1.33687e-11
2.12997e-11
3.3425e-11
5.18608e-11
7.97775e-11
1.21911e-10
1.85323e-10
2.80506e-10
4.22985e-10
6.35631e-10
9.51917e-10
1.4205e-09
2.11152e-09
3.12514e-09
4.60288e-09
6.74371e-09
9.8239e-09
1.42264e-08
2.04617e-08
2.9216e-08
4.13964e-08
5.81892e-08
8.1134e-08
1.1222e-07
1.54014e-07
2.09851e-07
2.84102e-07
3.82595e-07
5.13258e-07
6.87122e-07
9.199e-07
1.23449e-06
1.66499e-06
2.2632e-06
3.10933e-06
4.32989e-06
6.12779e-06
8.83357e-06
1.29921e-05
1.95081e-05
2.98959e-05
4.66309e-05
7.3735e-05
0.000117575
0.000188008
0.000300092
0.000476716
0.000752835
0.00118165
0.00184402
0.00286239
0.00442147
0.00679925
0.0104134
0.0158694
0.0239528
0.0364472
0.0553546
0.0840602
0.127879
0.18478
0.116662
0.0726997
0.0450081
0.0276015
0.0167294
0.0100032
0.00589149
0.00341286
0.00194192
0.00108391
0.000592697
0.00031708
0.00016573
8.45076e-05
4.20111e-05
2.03373e-05
9.57643e-06
4.3819e-06
1.94671e-06
8.39131e-07
3.50798e-07
1.42202e-07
5.5902e-08
2.13214e-08
7.89668e-09
2.84365e-09
9.95433e-10
3.37569e-10
1.0987e-10
3.34338e-11
6.55319e-12
7.3229e-15
9.02564e-14
3.0691e-13
7.35783e-13
1.49669e-12
2.76769e-12
4.82209e-12
8.06796e-12
1.31162e-11
2.0889e-11
3.27685e-11
5.0828e-11
7.81703e-11
1.19435e-10
1.81541e-10
2.74775e-10
4.14375e-10
6.22797e-10
9.32952e-10
1.39274e-09
2.07131e-09
3.06761e-09
4.5217e-09
6.63086e-09
9.67001e-09
1.40178e-08
2.01857e-08
2.88606e-08
4.09529e-08
5.76569e-08
8.05273e-08
1.11578e-07
1.53417e-07
2.09436e-07
2.84094e-07
3.83347e-07
5.15307e-07
6.91279e-07
9.27389e-07
1.24717e-06
1.68573e-06
2.29651e-06
3.16244e-06
4.41464e-06
6.26395e-06
9.05473e-06
1.33563e-05
2.01089e-05
3.08924e-05
4.8301e-05
7.65354e-05
0.000122238
0.000195684
0.000312419
0.000496621
0.000784505
0.00123156
0.00192211
0.00298383
0.00460934
0.00708857
0.0108574
0.0165398
0.0249709
0.0380165
0.0577397
0.0876904
0.133431
0.181221
0.113224
0.0705037
0.0436045
0.0267079
0.016165
0.00965039
0.00567374
0.00328041
0.00186266
0.00103731
0.00056583
0.000301911
0.000157356
8.00027e-05
3.96495e-05
1.91328e-05
8.97963e-06
4.09504e-06
1.81312e-06
7.78922e-07
3.2456e-07
1.31152e-07
5.14065e-08
1.95543e-08
7.22515e-09
2.59664e-09
9.07401e-10
3.0724e-10
1.00011e-10
3.04701e-11
5.929e-12
7.1948e-15
8.87688e-14
3.01695e-13
7.23594e-13
1.47096e-12
2.72087e-12
4.73829e-12
7.92041e-12
1.28714e-11
2.04883e-11
3.21265e-11
4.98149e-11
7.65888e-11
1.16994e-10
1.77803e-10
2.69101e-10
4.05828e-10
6.10032e-10
9.14057e-10
1.36503e-09
2.03113e-09
3.01002e-09
4.44031e-09
6.51753e-09
9.51711e-09
1.381e-08
1.99106e-08
2.8507e-08
4.05136e-08
5.71342e-08
7.99407e-08
1.10976e-07
1.52892e-07
2.0915e-07
2.8431e-07
3.84474e-07
5.17969e-07
6.9642e-07
9.36436e-07
1.2623e-06
1.7103e-06
2.3358e-06
3.22491e-06
4.51408e-06
6.4233e-06
9.31262e-06
1.37784e-05
2.08128e-05
3.20729e-05
5.02872e-05
7.98695e-05
0.000127789
0.000204793
0.000327337
0.000520461
0.000822326
0.00129112
0.00201527
0.00312867
0.00483328
0.00743307
0.0113849
0.0173315
0.0261668
0.0398425
0.0605202
0.0919349
0.139937
0.175614
0.109585
0.0681671
0.0421043
0.0257497
0.0155582
0.00927048
0.00543905
0.00313764
0.00177727
0.000987181
0.000536984
0.000285668
0.000148418
7.52131e-05
3.71497e-05
1.78639e-05
8.35414e-06
3.79602e-06
1.67465e-06
7.16871e-07
2.97672e-07
1.19892e-07
4.68488e-08
1.77712e-08
6.55046e-09
2.34909e-09
8.19396e-10
2.76958e-10
9.01967e-11
2.75043e-11
5.29591e-12
7.07697e-15
8.74026e-14
2.97653e-13
7.13217e-13
1.44825e-12
2.67688e-12
4.65916e-12
7.78513e-12
1.26434e-11
2.01184e-11
3.15329e-11
4.88764e-11
7.5122e-11
1.1472e-10
1.74315e-10
2.63797e-10
3.97827e-10
5.98062e-10
8.96307e-10
1.33897e-09
1.99327e-09
2.95568e-09
4.36334e-09
6.40988e-09
9.36762e-09
1.36106e-08
1.96499e-08
2.81751e-08
4.01056e-08
5.66556e-08
7.94159e-08
1.1046e-07
1.5249e-07
2.09039e-07
2.84777e-07
3.85964e-07
5.21165e-07
7.02351e-07
9.46663e-07
1.2792e-06
1.73757e-06
2.37923e-06
3.29382e-06
4.62371e-06
6.599e-06
9.59726e-06
1.42411e-05
2.1588e-05
3.33757e-05
5.24804e-05
8.35495e-05
0.000133909
0.000214788
0.000343635
0.00054659
0.00086376
0.00135627
0.00211701
0.00328652
0.0050768
0.00780674
0.0119556
0.0181825
0.0274494
0.0417961
0.0634896
0.0964604
0.146855
0.169679
0.105817
0.0657565
0.0405617
0.0247672
0.0149376
0.00888293
0.00520026
0.00299276
0.00169086
0.000936608
0.000507983
0.000269398
0.000139501
7.04558e-05
3.46782e-05
1.66155e-05
7.74188e-06
3.50484e-06
1.54052e-06
6.57081e-07
2.71896e-07
1.09149e-07
4.25205e-08
1.60847e-08
5.91445e-09
2.11668e-09
7.36716e-10
2.48567e-10
8.10166e-11
2.47279e-11
4.69251e-12
6.97225e-15
8.61913e-14
2.93399e-13
7.03416e-13
1.42904e-12
2.63892e-12
4.58875e-12
7.66379e-12
1.24422e-11
1.97887e-11
3.10032e-11
4.80355e-11
7.38041e-11
1.12677e-10
1.71177e-10
2.59012e-10
3.90599e-10
5.87235e-10
8.80242e-10
1.31537e-09
1.95899e-09
2.90653e-09
4.29397e-09
6.31463e-09
9.23574e-09
1.34329e-08
1.94171e-08
2.78797e-08
3.97457e-08
5.62403e-08
7.89737e-08
1.10052e-07
1.52227e-07
2.09109e-07
2.8548e-07
3.87768e-07
5.24779e-07
7.08852e-07
9.57679e-07
1.29723e-06
1.76646e-06
2.42508e-06
3.36644e-06
4.73917e-06
6.78421e-06
9.89789e-06
1.4738e-05
2.24085e-05
3.47477e-05
5.47843e-05
8.7406e-05
0.000140278
0.000225362
0.000360675
0.000573786
0.00090677
0.00142375
0.00222216
0.00344933
0.00532742
0.00819049
0.0125405
0.0190496
0.0287529
0.0437776
0.0664961
0.101035
0.153822
0.163703
0.102035
0.0633457
0.0390247
0.023792
0.0143241
0.00850121
0.00496596
0.00285114
0.00160673
0.000887569
0.000479978
0.000253756
0.000130968
6.59242e-05
3.23354e-05
1.5438e-05
7.1673e-06
3.23299e-06
1.41593e-06
6.01816e-07
2.48185e-07
9.93116e-08
3.85734e-08
1.45523e-08
5.33836e-09
1.9067e-09
6.62025e-10
2.22977e-10
7.27676e-11
2.22272e-11
4.1795e-12
6.88193e-15
8.5131e-14
2.9118e-13
6.94967e-13
1.41119e-12
2.60487e-12
4.52732e-12
7.55909e-12
1.22664e-11
1.94988e-11
3.05379e-11
4.72969e-11
7.26461e-11
1.1088e-10
1.6841e-10
2.54794e-10
3.8422e-10
5.77673e-10
8.66039e-10
1.29449e-09
1.92862e-09
2.8629e-09
4.23208e-09
6.2276e-09
9.11773e-09
1.32758e-08
1.92133e-08
2.76239e-08
3.94384e-08
5.58934e-08
7.86191e-08
1.09754e-07
1.52101e-07
2.09347e-07
2.86386e-07
3.89812e-07
5.2868e-07
7.15694e-07
9.69106e-07
1.31575e-06
1.79597e-06
2.47173e-06
3.44009e-06
4.85599e-06
6.97109e-06
1.01985e-05
1.52361e-05
2.32386e-05
3.61405e-05
5.71277e-05
9.13358e-05
0.000146803
0.000235966
0.000377743
0.000600972
0.000949673
0.00149093
0.00232662
0.00361075
0.0055754
0.00856945
0.013117
0.0198995
0.0300295
0.0457162
0.0694341
0.105501
0.160593
0.157866
0.0983488
0.0610022
0.0375355
0.0228504
0.0137338
0.00813537
0.00474228
0.0027165
0.00152708
0.000841333
0.00045369
0.000239139
0.000123031
6.17294e-05
3.01771e-05
1.43585e-05
6.64313e-06
2.98618e-06
1.30336e-06
5.52118e-07
2.26958e-07
9.05412e-08
3.50676e-08
1.31959e-08
4.82983e-09
1.72166e-09
5.96824e-10
2.00383e-10
6.55173e-11
2.00233e-11
3.76991e-12
7.54352e-15
8.57038e-14
2.87256e-13
6.87811e-13
1.39602e-12
2.57449e-12
4.47583e-12
7.46804e-12
1.21134e-11
1.92498e-11
3.01357e-11
4.66586e-11
7.16443e-11
1.09322e-10
1.66014e-10
2.51137e-10
3.78684e-10
5.69374e-10
8.53715e-10
1.27638e-09
1.90235e-09
2.82533e-09
4.1797e-09
6.15416e-09
9.01727e-09
1.31419e-08
1.90403e-08
2.74087e-08
3.91838e-08
5.56139e-08
7.83489e-08
1.09559e-07
1.52097e-07
2.09724e-07
2.87446e-07
3.92019e-07
5.32738e-07
7.22668e-07
9.80609e-07
1.33425e-06
1.8253e-06
2.51793e-06
3.51294e-06
4.97158e-06
7.15646e-06
1.05002e-05
1.5728e-05
2.40536e-05
3.7503e-05
5.94108e-05
9.51278e-05
0.000153125
0.000246297
0.000394374
0.00062742
0.00099133
0.00155602
0.00242758
0.00376634
0.0058137
0.00893235
0.0136668
0.020702
0.031244
0.0475632
0.0722324
0.109752
0.166996
0.152303
0.0948404
0.0587769
0.0361251
0.0219615
0.0131785
0.00779241
0.00453337
0.00259123
0.00145327
0.000798669
0.000429536
0.000225768
0.000115803
5.79269e-05
2.82297e-05
1.3389e-05
6.17456e-06
2.76657e-06
1.20364e-06
5.08285e-07
2.08312e-07
8.28671e-08
3.20109e-08
1.20169e-08
4.38899e-09
1.5615e-09
5.40444e-10
1.81178e-10
5.92214e-11
1.81096e-11
3.41377e-12
7.47764e-15
8.49326e-14
2.85289e-13
6.81078e-13
1.38334e-12
2.5503e-12
4.43133e-12
7.3908e-12
1.1984e-11
1.90369e-11
2.97921e-11
4.61131e-11
7.07865e-11
1.0799e-10
1.63961e-10
2.48e-10
3.73941e-10
5.62261e-10
8.43148e-10
1.26085e-09
1.87977e-09
2.79291e-09
4.1336e-09
6.0908e-09
8.93161e-09
1.30289e-08
1.88957e-08
2.72312e-08
3.89782e-08
5.53962e-08
7.81544e-08
1.09454e-07
1.52195e-07
2.10209e-07
2.8861e-07
3.94309e-07
5.3683e-07
7.29583e-07
9.91891e-07
1.35226e-06
1.85369e-06
2.56247e-06
3.58285e-06
5.08196e-06
7.33185e-06
1.07868e-05
1.61996e-05
2.48377e-05
3.88169e-05
6.16176e-05
9.88221e-05
0.000159192
0.000256163
0.000410219
0.000652582
0.00103092
0.00161782
0.00252341
0.003914
0.00603991
0.00927713
0.01419
0.0214637
0.0323845
0.0492911
0.074846
0.113718
0.172925
0.1471
0.091564
0.0567033
0.0348144
0.0211377
0.0126655
0.00747669
0.00434175
0.00247675
0.00138607
0.00075998
0.000407722
0.000213742
0.000109331
5.45365e-05
2.65008e-05
1.25321e-05
5.76218e-06
2.57412e-06
1.11662e-06
4.70184e-07
1.92166e-07
7.62449e-08
2.93816e-08
1.10056e-08
4.01191e-09
1.42458e-09
4.92366e-10
1.64878e-10
5.38537e-11
1.64776e-11
3.10988e-12
5.94195e-15
8.35429e-14
2.83004e-13
6.77629e-13
1.37138e-12
2.52886e-12
4.39293e-12
7.3259e-12
1.18742e-11
1.88567e-11
2.95016e-11
4.56506e-11
7.00614e-11
1.0686e-10
1.62221e-10
2.45344e-10
3.69922e-10
5.56238e-10
8.34216e-10
1.24775e-09
1.86084e-09
2.76612e-09
4.09563e-09
6.03822e-09
8.86052e-09
1.29355e-08
1.87772e-08
2.70879e-08
3.88163e-08
5.52328e-08
7.80248e-08
1.09423e-07
1.52371e-07
2.1077e-07
2.8983e-07
3.96611e-07
5.40853e-07
7.36288e-07
1.00273e-06
1.36946e-06
1.88072e-06
2.60481e-06
3.6494e-06
5.18747e-06
7.5007e-06
1.10581e-05
1.66436e-05
2.55735e-05
4.0046e-05
6.36678e-05
0.000102262
0.00016487
0.000265395
0.000425023
0.000676052
0.00106779
0.00167529
0.00261237
0.00405085
0.00624924
0.0095957
0.0146727
0.022161
0.0334324
0.0508789
0.0772466
0.11736
0.178271
0.14232
0.088558
0.0548042
0.0336167
0.020387
0.0121994
0.00719068
0.00416872
0.00237375
0.00132582
0.000725419
0.000388308
0.000203079
0.000103619
5.15561e-05
2.49871e-05
1.17847e-05
5.40394e-06
2.40758e-06
1.0416e-06
4.37455e-07
1.78344e-07
7.05941e-08
2.71445e-08
1.01474e-08
3.69254e-09
1.30913e-09
4.51739e-10
1.51131e-10
4.93294e-11
1.5102e-11
2.85369e-12
6.63542e-15
8.30012e-14
2.8036e-13
6.72154e-13
1.36285e-12
2.51263e-12
4.36198e-12
7.27185e-12
1.17817e-11
1.87055e-11
2.92579e-11
4.52628e-11
6.94512e-11
1.05911e-10
1.6076e-10
2.43115e-10
3.6655e-10
5.51183e-10
8.26716e-10
1.23675e-09
1.84484e-09
2.74316e-09
4.06366e-09
5.99446e-09
8.80187e-09
1.28592e-08
1.86816e-08
2.69744e-08
3.8692e-08
5.51152e-08
7.79484e-08
1.09449e-07
1.52603e-07
2.11373e-07
2.91061e-07
3.98862e-07
5.44713e-07
7.42644e-07
1.01293e-06
1.38553e-06
1.90582e-06
2.64391e-06
3.71042e-06
5.28325e-06
7.65498e-06
1.13084e-05
1.70545e-05
2.62562e-05
4.11895e-05
6.55855e-05
0.000105437
0.000170084
0.00027385
0.000438554
0.000697465
0.00110136
0.00172753
0.00269309
0.00417477
0.00643838
0.00988286
0.0151067
0.0227967
0.034383
0.0523165
0.0794182
0.120652
0.182988
0.138001
0.0858442
0.0530926
0.0325396
0.0197136
0.0117823
0.00693553
0.00401484
0.00228242
0.00127259
0.000694984
0.000371271
0.000193754
9.86455e-05
4.89701e-05
2.36784e-05
1.11409e-05
5.09644e-06
2.26512e-06
9.77639e-07
4.09645e-07
1.66635e-07
6.58207e-08
2.52596e-08
9.42606e-09
3.42462e-09
1.21244e-09
4.17751e-10
1.39652e-10
4.55537e-11
1.39541e-11
2.63991e-12
5.85801e-15
8.25535e-14
2.78787e-13
6.68235e-13
1.35457e-12
2.49746e-12
4.33476e-12
7.22579e-12
1.17055e-11
1.85793e-11
2.90548e-11
4.494e-11
6.89447e-11
1.05124e-10
1.59547e-10
2.41265e-10
3.63753e-10
5.46999e-10
8.20527e-10
1.22771e-09
1.83189e-09
2.7246e-09
4.03767e-09
5.95889e-09
8.7544e-09
1.27979e-08
1.86059e-08
2.68863e-08
3.85993e-08
5.50351e-08
7.79137e-08
1.09517e-07
1.5287e-07
2.1199e-07
2.92264e-07
4.01007e-07
5.4834e-07
7.48563e-07
1.02236e-06
1.40036e-06
1.92894e-06
2.67994e-06
3.76686e-06
5.37234e-06
7.79608e-06
1.15358e-05
1.74265e-05
2.68719e-05
4.22148e-05
6.73106e-05
0.000108307
0.000174798
0.000281481
0.000450741
0.000716714
0.00113148
0.0017743
0.00276521
0.00428529
0.0066067
0.0101378
0.0154911
0.0233674
0.035232
0.0535973
0.0813505
0.123579
0.187064
0.134162
0.0834349
0.0515757
0.031587
0.0191194
0.0114153
0.00671163
0.0038802
0.00220276
0.00122629
0.000668596
0.000356547
0.000185721
9.43746e-05
4.67568e-05
2.2562e-05
1.05934e-05
4.83578e-06
2.14474e-06
9.23755e-07
3.86281e-07
1.56825e-07
6.18316e-08
2.36881e-08
8.82584e-09
3.20207e-09
1.13224e-09
3.89591e-10
1.30161e-10
4.24332e-11
1.30055e-11
2.46332e-12
6.56635e-15
8.29315e-14
2.78984e-13
6.66511e-13
1.34928e-12
2.48519e-12
4.31343e-12
7.18795e-12
1.1642e-11
1.84762e-11
2.88885e-11
4.46751e-11
6.85278e-11
1.04477e-10
1.58551e-10
2.39746e-10
3.61456e-10
5.43564e-10
8.15436e-10
1.22025e-09
1.82108e-09
2.70935e-09
4.01652e-09
5.93018e-09
8.7164e-09
1.27493e-08
1.85468e-08
2.68194e-08
3.85323e-08
5.49843e-08
7.79097e-08
1.09613e-07
1.53151e-07
2.12594e-07
2.93401e-07
4.02998e-07
5.51665e-07
7.53944e-07
1.03089e-06
1.41369e-06
1.94968e-06
2.71216e-06
3.81717e-06
5.45153e-06
7.92223e-06
1.17397e-05
1.77609e-05
2.74273e-05
4.31431e-05
6.88541e-05
0.000110865
0.00017899
0.000288258
0.000461553
0.000733769
0.00115815
0.00181566
0.00282893
0.00438281
0.0067551
0.0103625
0.0158298
0.0238703
0.0359778
0.0547201
0.0830381
0.126128
0.190682
0.130813
0.0813376
0.0502585
0.030762
0.0186061
0.0110991
0.00651926
0.00376482
0.00213467
0.00118682
0.000646161
0.000344061
0.000178928
9.07724e-05
4.48951e-05
2.16254e-05
1.01354e-05
4.61827e-06
2.04455e-06
8.7902e-07
3.66931e-07
1.48718e-07
5.85421e-08
2.23947e-08
8.33271e-09
3.01948e-09
1.06654e-09
3.66536e-10
1.22405e-10
3.98845e-11
1.22311e-11
2.31918e-12
6.54191e-15
8.26404e-14
2.77951e-13
6.63195e-13
1.34382e-12
2.47617e-12
4.29515e-12
7.15722e-12
1.15918e-11
1.83925e-11
2.87548e-11
4.44605e-11
6.81914e-11
1.03955e-10
1.57746e-10
2.3852e-10
3.59608e-10
5.40802e-10
8.11358e-10
1.2143e-09
1.81252e-09
2.69724e-09
3.99974e-09
5.90749e-09
8.68659e-09
1.27116e-08
1.85017e-08
2.67698e-08
3.84857e-08
5.49556e-08
7.79265e-08
1.09722e-07
1.53429e-07
2.13161e-07
2.94442e-07
4.04792e-07
5.54632e-07
7.58712e-07
1.0384e-06
1.4254e-06
1.9678e-06
2.74021e-06
3.86075e-06
5.52051e-06
8.0324e-06
1.19179e-05
1.80531e-05
2.79118e-05
4.39528e-05
7.02063e-05
0.000113107
0.000182665
0.000294194
0.000471016
0.000748689
0.00118146
0.0018518
0.00288456
0.0044679
0.00688443
0.0105579
0.0161236
0.024305
0.0366245
0.0556917
0.0844983
0.128322
0.194134
0.127985
0.0795739
0.0491542
0.030072
0.0181777
0.0108356
0.00635917
0.00366893
0.00207816
0.00115411
0.000627598
0.000333746
0.000173325
8.78069e-05
4.33652e-05
2.08571e-05
9.76039e-06
4.44053e-06
1.96283e-06
8.426e-07
3.51206e-07
1.42142e-07
5.58778e-08
2.13487e-08
7.93445e-09
2.87214e-09
1.01359e-09
3.47965e-10
1.1617e-10
3.78358e-11
1.16087e-11
2.2034e-12
5.78257e-15
8.16685e-14
2.77135e-13
6.61895e-13
1.34025e-12
2.4686e-12
4.28235e-12
7.13486e-12
1.15509e-11
1.83271e-11
2.86473e-11
4.42925e-11
6.79252e-11
1.03542e-10
1.57111e-10
2.37551e-10
3.5815e-10
5.38627e-10
8.08155e-10
1.20965e-09
1.80583e-09
2.6878e-09
3.9867e-09
5.88995e-09
8.6637e-09
1.2683e-08
1.84681e-08
2.67341e-08
3.84545e-08
5.49425e-08
7.79552e-08
1.09833e-07
1.53688e-07
2.13671e-07
2.9536e-07
4.06356e-07
5.57198e-07
7.62818e-07
1.04486e-06
1.43544e-06
1.98336e-06
2.76436e-06
3.89846e-06
5.5796e-06
8.1264e-06
1.20697e-05
1.83018e-05
2.8324e-05
4.46442e-05
7.13632e-05
0.000115028
0.000185814
0.000299285
0.000479138
0.000761508
0.00120151
0.00188295
0.00293262
0.00454159
0.00699682
0.0107285
0.0163816
0.0246895
0.0371969
0.0565575
0.0858132
0.130328
0.195097
0.125822
0.0782088
0.048292
0.0295298
0.0178394
0.0106269
0.00623198
0.00359261
0.00203313
0.00112803
0.000612789
0.000325517
0.000168856
8.54427e-05
4.21463e-05
2.02456e-05
9.46215e-06
4.29932e-06
1.89798e-06
8.13731e-07
3.38756e-07
1.36941e-07
5.3773e-08
2.05231e-08
7.6204e-09
2.75615e-09
9.71886e-10
3.33338e-10
1.11268e-10
3.62255e-11
1.11197e-11
2.11247e-12
5.76663e-15
8.22325e-14
2.76513e-13
6.60348e-13
1.33696e-12
2.46227e-12
4.27088e-12
7.11495e-12
1.15204e-11
1.82772e-11
2.85665e-11
4.41621e-11
6.77221e-11
1.03225e-10
1.56625e-10
2.36812e-10
3.57032e-10
5.36962e-10
8.05697e-10
1.20607e-09
1.80071e-09
2.68062e-09
3.97685e-09
5.87679e-09
8.64666e-09
1.2662e-08
1.84438e-08
2.67092e-08
3.84348e-08
5.49391e-08
7.79881e-08
1.09936e-07
1.53914e-07
2.14103e-07
2.96128e-07
4.07654e-07
5.59317e-07
7.66195e-07
1.05015e-06
1.44367e-06
1.99609e-06
2.78408e-06
3.92921e-06
5.628e-06
8.20361e-06
1.21948e-05
1.85074e-05
2.86662e-05
4.52149e-05
7.23172e-05
0.000116612
0.000188413
0.00030349
0.000485855
0.000772125
0.00121815
0.00190883
0.00297264
0.0046031
0.00709087
0.0108717
0.0165988
0.0250143
0.0376837
0.0572981
0.086939
0.132051
0.195091
0.124219
0.0771926
0.0476472
0.0291225
0.0175843
0.0104689
0.00613549
0.00353458
0.00199882
0.00110812
0.000601475
0.000319226
0.000165438
8.36336e-05
4.12136e-05
1.97777e-05
9.23403e-06
4.19135e-06
1.84842e-06
7.91682e-07
3.29253e-07
1.32974e-07
5.21685e-08
1.98942e-08
7.38128e-09
2.66787e-09
9.40153e-10
3.22209e-10
1.07544e-10
3.50021e-11
1.07482e-11
2.04344e-12
6.49622e-15
8.13669e-14
2.76068e-13
6.58491e-13
1.3346e-12
2.45769e-12
4.26409e-12
7.10278e-12
1.14991e-11
1.8241e-11
2.85073e-11
4.40686e-11
6.75753e-11
1.02996e-10
1.56274e-10
2.36277e-10
3.56227e-10
5.35761e-10
8.0393e-10
1.2035e-09
1.79705e-09
2.67549e-09
3.96982e-09
5.86744e-09
8.63464e-09
1.26473e-08
1.84272e-08
2.66927e-08
3.8423e-08
5.49408e-08
7.80186e-08
1.10021e-07
1.54094e-07
2.14443e-07
2.96726e-07
4.08657e-07
5.60948e-07
7.68787e-07
1.05421e-06
1.44996e-06
2.00583e-06
2.79916e-06
3.95272e-06
5.66504e-06
8.26276e-06
1.22907e-05
1.86651e-05
2.89284e-05
4.56539e-05
7.30521e-05
0.000117834
0.000190419
0.000306739
0.000491049
0.000780341
0.00123104
0.00192891
0.00300371
0.00465091
0.00716405
0.0109832
0.016768
0.0252676
0.0380634
0.0578758
0.0878188
0.133397
0.194815
0.123082
0.0764706
0.0471884
0.0288322
0.0174022
0.010356
0.00606639
0.00349296
0.00197418
0.00109381
0.000593334
0.000314694
0.000162974
8.23293e-05
4.05409e-05
1.94402e-05
9.06949e-06
4.11349e-06
1.81268e-06
7.75789e-07
3.22405e-07
1.30116e-07
5.10131e-08
1.94415e-08
7.20921e-09
2.60438e-09
9.17326e-10
3.14202e-10
1.04868e-10
3.41231e-11
1.04814e-11
1.99387e-12
6.48985e-15
8.20252e-14
2.76526e-13
6.57768e-13
1.33305e-12
2.45622e-12
4.25945e-12
7.09419e-12
1.14841e-11
1.82166e-11
2.84685e-11
4.4008e-11
6.74799e-11
1.02849e-10
1.56046e-10
2.35931e-10
3.55706e-10
5.34984e-10
8.02789e-10
1.20185e-09
1.79469e-09
2.67218e-09
3.96531e-09
5.86146e-09
8.62699e-09
1.2638e-08
1.84168e-08
2.66827e-08
3.84167e-08
5.4944e-08
7.80418e-08
1.10081e-07
1.5422e-07
2.14677e-07
2.97134e-07
4.09339e-07
5.62054e-07
7.70542e-07
1.05696e-06
1.45422e-06
2.0124e-06
2.80935e-06
3.96862e-06
5.69011e-06
8.30282e-06
1.23556e-05
1.8772e-05
2.91066e-05
4.59526e-05
7.35528e-05
0.000118667
0.000191788
0.000308957
0.000494596
0.000785958
0.00123986
0.00194266
0.00302501
0.00468373
0.00721435
0.01106
0.0168832
0.0254406
0.0383232
0.0582712
0.0884212
0.134319
0.194483
0.122355
0.0760085
0.0468944
0.0286461
0.0172853
0.0102834
0.00602193
0.00346615
0.0019583
0.00108458
0.000588077
0.000311767
0.000161382
8.14859e-05
4.01059e-05
1.92219e-05
8.96306e-06
4.06312e-06
1.78957e-06
7.65511e-07
3.17977e-07
1.28268e-07
5.02664e-08
1.9149e-08
7.09805e-09
2.56336e-09
9.02582e-10
3.0903e-10
1.03142e-10
3.35559e-11
1.03093e-11
1.96191e-12
6.48666e-15
8.12446e-14
2.76379e-13
6.57406e-13
1.33231e-12
2.45403e-12
4.25756e-12
7.08889e-12
1.14779e-11
1.82055e-11
2.84511e-11
4.39778e-11
6.74334e-11
1.02776e-10
1.55935e-10
2.35761e-10
3.55451e-10
5.34606e-10
8.02233e-10
1.20104e-09
1.79354e-09
2.67058e-09
3.96313e-09
5.85856e-09
8.6233e-09
1.26336e-08
1.84119e-08
2.66781e-08
3.84139e-08
5.49462e-08
7.80541e-08
1.10112e-07
1.54283e-07
2.14795e-07
2.97339e-07
4.09681e-07
5.62608e-07
7.7142e-07
1.05833e-06
1.45635e-06
2.01569e-06
2.81445e-06
3.97658e-06
5.70267e-06
8.32292e-06
1.23883e-05
1.88258e-05
2.91961e-05
4.61029e-05
7.38048e-05
0.000119086
0.000192478
0.000310075
0.000496385
0.000788793
0.00124431
0.00194961
0.00303578
0.00470032
0.0072398
0.0110988
0.0169414
0.0255281
0.0384547
0.0584715
0.0887268
0.134787
0.194237
0.122004
0.0757853
0.0467521
0.0285558
0.0172286
0.0102481
0.00600031
0.00345311
0.00195057
0.00108008
0.000585516
0.00031034
0.000160606
8.10749e-05
3.98938e-05
1.91154e-05
8.91118e-06
4.03857e-06
1.77831e-06
7.60502e-07
3.1582e-07
1.27368e-07
4.99026e-08
1.90065e-08
7.04389e-09
2.54338e-09
8.95397e-10
3.06508e-10
1.023e-10
3.32794e-11
1.02253e-11
1.94632e-12
7.22688e-15
8.12446e-14
2.76377e-13
6.58155e-13
1.33305e-12
2.45401e-12
4.25681e-12
7.08963e-12
1.14772e-11
1.82055e-11
2.84511e-11
4.39786e-11
6.74327e-11
1.02776e-10
1.55935e-10
2.35762e-10
3.55451e-10
5.34606e-10
8.02232e-10
1.20104e-09
1.79354e-09
2.67058e-09
3.96313e-09
5.85857e-09
8.6233e-09
1.26336e-08
1.84119e-08
2.66781e-08
3.84139e-08
5.49462e-08
7.80541e-08
1.10112e-07
1.54284e-07
2.14795e-07
2.97339e-07
4.09681e-07
5.62608e-07
7.7142e-07
1.05833e-06
1.45635e-06
2.0157e-06
2.81445e-06
3.97658e-06
5.70268e-06
8.32292e-06
1.23883e-05
1.88258e-05
2.91962e-05
4.61029e-05
7.38048e-05
0.000119086
0.000192478
0.000310075
0.000496386
0.000788793
0.00124431
0.00194961
0.00303578
0.00470032
0.0072398
0.0110988
0.0169414
0.0255281
0.0384547
0.0584715
0.0887267
0.134787
0.194237
0.122004
0.0757853
0.0467521
0.0285558
0.0172286
0.0102481
0.00600031
0.00345311
0.00195057
0.00108008
0.000585516
0.00031034
0.000160606
8.10749e-05
3.98938e-05
1.91154e-05
8.91118e-06
4.03858e-06
1.77831e-06
7.60502e-07
3.1582e-07
1.27368e-07
4.99026e-08
1.90065e-08
7.04389e-09
2.54338e-09
8.95397e-10
3.06508e-10
1.023e-10
3.32794e-11
1.02253e-11
1.94631e-12
6.48926e-15
8.12838e-14
2.75044e-13
6.58503e-13
1.33307e-12
2.45622e-12
4.25947e-12
7.09418e-12
1.14849e-11
1.82167e-11
2.84693e-11
4.40081e-11
6.74792e-11
1.02849e-10
1.56047e-10
2.35932e-10
3.55706e-10
5.34985e-10
8.0279e-10
1.20185e-09
1.79469e-09
2.67219e-09
3.96532e-09
5.86146e-09
8.627e-09
1.2638e-08
1.84168e-08
2.66827e-08
3.84167e-08
5.49441e-08
7.80419e-08
1.10081e-07
1.5422e-07
2.14678e-07
2.97134e-07
4.0934e-07
5.62055e-07
7.70543e-07
1.05696e-06
1.45422e-06
2.01241e-06
2.80935e-06
3.96862e-06
5.69012e-06
8.30283e-06
1.23557e-05
1.8772e-05
2.91066e-05
4.59527e-05
7.35529e-05
0.000118667
0.000191788
0.000308957
0.000494596
0.000785959
0.00123986
0.00194266
0.00302501
0.00468373
0.00721435
0.0110599
0.0168831
0.0254406
0.0383232
0.0582711
0.0884212
0.134319
0.194483
0.122355
0.0760086
0.0468944
0.0286461
0.0172853
0.0102834
0.00602194
0.00346615
0.0019583
0.00108458
0.000588077
0.000311767
0.000161382
8.1486e-05
4.01059e-05
1.92219e-05
8.96307e-06
4.06313e-06
1.78957e-06
7.65512e-07
3.17978e-07
1.28269e-07
5.02665e-08
1.9149e-08
7.09806e-09
2.56337e-09
9.02584e-10
3.0903e-10
1.03142e-10
3.3556e-11
1.03093e-11
1.96191e-12
6.49622e-15
8.13679e-14
2.76068e-13
6.58494e-13
1.3346e-12
2.45771e-12
4.26412e-12
7.10207e-12
1.14999e-11
1.82403e-11
2.85081e-11
4.4068e-11
6.75755e-11
1.02996e-10
1.56274e-10
2.36278e-10
3.56227e-10
5.35762e-10
8.03932e-10
1.2035e-09
1.79705e-09
2.67549e-09
3.96983e-09
5.86745e-09
8.63465e-09
1.26473e-08
1.84272e-08
2.66927e-08
3.84231e-08
5.49409e-08
7.80188e-08
1.10021e-07
1.54095e-07
2.14444e-07
2.96726e-07
4.08657e-07
5.60949e-07
7.68788e-07
1.05421e-06
1.44997e-06
2.00583e-06
2.79917e-06
3.95273e-06
5.66505e-06
8.26278e-06
1.22907e-05
1.86651e-05
2.89285e-05
4.5654e-05
7.30523e-05
0.000117834
0.00019042
0.00030674
0.000491049
0.000780342
0.00123104
0.00192891
0.00300371
0.00465091
0.00716405
0.0109832
0.016768
0.0252675
0.0380634
0.0578757
0.0878187
0.133397
0.194815
0.123082
0.0764707
0.0471884
0.0288323
0.0174022
0.010356
0.0060664
0.00349296
0.00197419
0.00109381
0.000593334
0.000314695
0.000162974
8.23294e-05
4.05409e-05
1.94402e-05
9.06951e-06
4.1135e-06
1.81269e-06
7.75791e-07
3.22406e-07
1.30116e-07
5.10133e-08
1.94416e-08
7.20923e-09
2.60438e-09
9.17328e-10
3.14203e-10
1.04869e-10
3.41232e-11
1.04814e-11
1.99387e-12
6.50685e-15
8.14954e-14
2.77262e-13
6.59616e-13
1.33698e-12
2.46228e-12
4.27165e-12
7.11575e-12
1.15204e-11
1.82773e-11
2.85667e-11
4.41622e-11
6.77232e-11
1.03226e-10
1.56626e-10
2.36813e-10
3.57034e-10
5.36962e-10
8.05699e-10
1.20607e-09
1.80072e-09
2.68063e-09
3.97686e-09
5.87681e-09
8.64669e-09
1.2662e-08
1.84439e-08
2.67092e-08
3.84349e-08
5.49392e-08
7.79883e-08
1.09936e-07
1.53914e-07
2.14104e-07
2.96129e-07
4.07655e-07
5.59319e-07
7.66197e-07
1.05016e-06
1.44368e-06
1.9961e-06
2.78409e-06
3.92922e-06
5.62802e-06
8.20364e-06
1.21948e-05
1.85075e-05
2.86663e-05
4.5215e-05
7.23174e-05
0.000116613
0.000188414
0.000303491
0.000485856
0.000772126
0.00121815
0.00190884
0.00297264
0.0046031
0.00709087
0.0108717
0.0165988
0.0250143
0.0376836
0.057298
0.0869389
0.13205
0.195091
0.12422
0.0771928
0.0476473
0.0291225
0.0175843
0.0104689
0.0061355
0.00353458
0.00199882
0.00110813
0.000601476
0.000319227
0.000165438
8.36338e-05
4.12137e-05
1.97777e-05
9.23406e-06
4.19137e-06
1.84842e-06
7.91686e-07
3.29254e-07
1.32974e-07
5.21687e-08
1.98943e-08
7.38132e-09
2.66789e-09
9.40157e-10
3.22211e-10
1.07544e-10
3.50022e-11
1.07483e-11
2.04345e-12
6.52231e-15
8.16685e-14
2.77133e-13
6.61895e-13
1.34025e-12
2.46937e-12
4.28314e-12
7.13492e-12
1.15517e-11
1.83265e-11
2.86468e-11
4.42927e-11
6.79264e-11
1.03542e-10
1.57112e-10
2.37553e-10
3.5815e-10
5.38629e-10
8.08158e-10
1.20966e-09
1.80583e-09
2.6878e-09
3.98671e-09
5.88997e-09
8.66373e-09
1.26831e-08
1.84681e-08
2.67341e-08
3.84546e-08
5.49426e-08
7.79555e-08
1.09834e-07
1.53689e-07
2.13671e-07
2.95361e-07
4.06357e-07
5.572e-07
7.6282e-07
1.04486e-06
1.43545e-06
1.98337e-06
2.76437e-06
3.89847e-06
5.57962e-06
8.12643e-06
1.20698e-05
1.83019e-05
2.83241e-05
4.46444e-05
7.13635e-05
0.000115028
0.000185815
0.000299286
0.000479139
0.000761509
0.00120151
0.00188295
0.00293262
0.00454159
0.00699681
0.0107285
0.0163816
0.0246895
0.0371969
0.0565574
0.0858131
0.130328
0.195096
0.125822
0.078209
0.0482922
0.0295299
0.0178394
0.0106269
0.006232
0.00359262
0.00203314
0.00112803
0.000612791
0.000325519
0.000168857
8.54431e-05
4.21465e-05
2.02457e-05
9.46221e-06
4.29934e-06
1.89799e-06
8.13737e-07
3.38758e-07
1.36942e-07
5.37734e-08
2.05233e-08
7.62046e-09
2.75617e-09
9.71894e-10
3.33341e-10
1.11269e-10
3.62257e-11
1.11197e-11
2.11249e-12
6.54191e-15
8.26394e-14
2.78689e-13
6.63199e-13
1.34309e-12
2.47617e-12
4.29592e-12
7.15728e-12
1.15919e-11
1.83926e-11
2.87535e-11
4.44607e-11
6.81911e-11
1.03955e-10
1.57747e-10
2.38521e-10
3.59609e-10
5.40804e-10
8.11362e-10
1.21431e-09
1.81252e-09
2.69725e-09
3.99975e-09
5.90751e-09
8.68662e-09
1.27117e-08
1.85018e-08
2.67699e-08
3.84858e-08
5.49558e-08
7.79268e-08
1.09723e-07
1.5343e-07
2.13162e-07