/*--------------------------------*- C++ -*----------------------------------*\
| =========                 |                                                 |
| \\      /  F ield         | OpenFOAM: The Open Source CFD Toolbox           |
|  \\    /   O peration     | Version:  2.3.x                                 |
|   \\  /    A nd           | Web:      www.OpenFOAM.org                      |
|    \\/     M anipulation  |                                                 |
\*---------------------------------------------------------------------------*/
FoamFile
{
    version     2.0;
    format      ascii;
    class       volScalarField;
    location    "0.5";
    object      H2O;
}
// * * * * * * * * * * * * * * * * * * * * * * * * * * * * * * * * * * * * * //

dimensions      [0 0 0 0 0 0 0];

internalField   nonuniform List<scalar> 
4000
(
0.000190918
0.000622001
0.00110828
0.00165603
0.00227187
0.00296267
0.00373554
0.00459769
0.00555635
0.00661859
0.00779117
0.00908038
0.0104918
0.0120303
0.0136995
0.0155019
0.0174385
0.019509
0.0217112
0.0240415
0.0264944
0.0290629
0.0317384
0.0345108
0.0373688
0.0402996
0.0432944
0.0463351
0.0494083
0.0524999
0.0555964
0.0586845
0.0617513
0.0647851
0.0677746
0.07071
0.0735824
0.076384
0.0791081
0.0817492
0.0843029
0.0867658
0.0891356
0.0914105
0.09359
0.095674
0.0976631
0.0995584
0.101362
0.103075
0.1047
0.106239
0.107695
0.10907
0.110366
0.111584
0.112724
0.113786
0.114765
0.115655
0.116443
0.11711
0.11762
0.11792
0.117947
0.11758
0.116639
0.114849
0.111781
0.106778
0.100634
0.0939153
0.0869778
0.0800464
0.0732628
0.0667155
0.0604586
0.0545243
0.0489304
0.0436858
0.0387933
0.0342518
0.0300572
0.0262077
0.0226952
0.019509
0.0166371
0.0140658
0.0117798
0.00976257
0.00799619
0.00646175
0.00513956
0.00400952
0.00305151
0.00224563
0.00157243
0.00101278
0.000547109
0.000157869
0.000189711
0.000618071
0.00110129
0.00164564
0.0022577
0.00294435
0.00371267
0.00456989
0.0055232
0.00657971
0.00774619
0.00902898
0.0104337
0.0119653
0.0136274
0.0154226
0.0173522
0.0194157
0.0216113
0.0239353
0.0263824
0.0289458
0.0316171
0.0343865
0.0372431
0.0401755
0.0431661
0.0462051
0.0492783
0.0523713
0.0554702
0.0585616
0.0616326
0.0646712
0.0676662
0.0706075
0.0734862
0.0762943
0.0790252
0.0816731
0.0842337
0.0867034
0.0890798
0.0913612
0.0935468
0.0956367
0.0976313
0.0995317
0.10134
0.103058
0.104687
0.106231
0.10769
0.109068
0.110367
0.111587
0.11273
0.113793
0.114773
0.115663
0.11645
0.117114
0.117619
0.117912
0.117928
0.117544
0.116576
0.114744
0.111615
0.106546
0.100361
0.0936186
0.0866677
0.0797301
0.0729454
0.0664006
0.0601491
0.0542223
0.0486379
0.0434043
0.0385244
0.0339968
0.0298173
0.0259842
0.0224888
0.0193204
0.0164667
0.0139136
0.0116458
0.00964624
0.00789687
0.0063785
0.00507125
0.00395484
0.00300905
0.00221395
0.00155007
0.000998297
0.000539233
0.000155583
0.000188038
0.000612595
0.00109147
0.00163088
0.0022374
0.00291789
0.00367943
0.00452924
0.00547455
0.00652246
0.00767981
0.00895298
0.0103477
0.0118689
0.0135204
0.0153049
0.0172237
0.0192767
0.0214621
0.0237763
0.0262142
0.028769
0.0314323
0.0341942
0.0370432
0.0399722
0.0429629
0.0460022
0.0490764
0.0521715
0.0552738
0.0583697
0.0614465
0.0644919
0.0674947
0.0704446
0.0733326
0.0761506
0.0788917
0.0815501
0.0841213
0.0866017
0.0889885
0.0912803
0.093476
0.0955757
0.0975798
0.0994896
0.101306
0.103031
0.104667
0.106217
0.107683
0.109066
0.11037
0.111594
0.112739
0.113805
0.114786
0.115676
0.116461
0.11712
0.117617
0.117897
0.117893
0.117475
0.116456
0.114546
0.111299
0.106125
0.0998768
0.0930965
0.0861257
0.0791804
0.0723966
0.0658592
0.0596198
0.053709
0.0481438
0.0429323
0.0380766
0.0335751
0.0294238
0.0256204
0.0221557
0.0190185
0.0161961
0.0136741
0.0114366
0.00946625
0.00774452
0.0062519
0.00496825
0.00387311
0.00294614
0.00216737
0.00151741
0.000977258
0.000527863
0.0001523
0.000186132
0.000606376
0.00108035
0.00161421
0.00221449
0.00288801
0.00364185
0.00448323
0.0054194
0.00645749
0.00760437
0.00886649
0.0102497
0.0117589
0.0133982
0.0151703
0.0170768
0.0191176
0.0212911
0.023594
0.0260214
0.0285667
0.0312218
0.033977
0.0368214
0.0397442
0.0427309
0.0457681
0.048842
0.0519386
0.055044
0.0581447
0.0612276
0.0642806
0.0672921
0.0702518
0.0731504
0.0759798
0.0787327
0.0814034
0.0839871
0.08648
0.0888793
0.0911833
0.093391
0.0955021
0.097517
0.0994375
0.101264
0.102999
0.104645
0.106203
0.107676
0.109066
0.110375
0.111605
0.112755
0.113823
0.114806
0.115695
0.116478
0.117131
0.117615
0.117877
0.117843
0.11738
0.11629
0.114272
0.110859
0.105567
0.0992453
0.0924222
0.0854295
0.0784771
0.0716971
0.0651715
0.0589503
0.0530626
0.0475245
0.0423434
0.0375208
0.0330548
0.0289411
0.0251768
0.0217519
0.0186548
0.0158722
0.0133891
0.0111891
0.00925444
0.00756614
0.00610435
0.00484867
0.0037785
0.00287343
0.00211356
0.00147961
0.000952868
0.000514661
0.000148478
0.000184196
0.000600064
0.00106908
0.00159735
0.00219132
0.00285782
0.00360388
0.00443672
0.00536358
0.00639164
0.00752781
0.00877858
0.0101499
0.0116467
0.0132733
0.0150326
0.0169262
0.0189543
0.0211154
0.0234064
0.0258227
0.0283578
0.0310039
0.0337516
0.0365937
0.0395086
0.0424902
0.0455246
0.0485978
0.0516956
0.0548039
0.0579092
0.0609984
0.0640589
0.0670794
0.0700492
0.0729588
0.0757999
0.0785654
0.081249
0.0838459
0.0863521
0.0887648
0.091082
0.0933027
0.0954265
0.0974538
0.0993856
0.101223
0.102968
0.104623
0.10619
0.107672
0.109069
0.110385
0.11162
0.112774
0.113846
0.11483
0.115719
0.116498
0.117143
0.117613
0.117853
0.117784
0.117267
0.116094
0.113949
0.110341
0.104924
0.0985263
0.0916587
0.0846444
0.0776866
0.0709132
0.0644033
0.0582047
0.0523452
0.0468397
0.0416947
0.0369113
0.0324866
0.0284167
0.0246971
0.0213174
0.0182654
0.015527
0.0130868
0.0109279
0.00903186
0.00737943
0.00595045
0.0047243
0.00368029
0.00279804
0.00205776
0.00144037
0.000927518
0.000500926
0.000144498
0.000182328
0.000593981
0.00105824
0.00158114
0.00216909
0.00282887
0.00356748
0.00439212
0.00531005
0.00632844
0.00745424
0.00869402
0.0100537
0.0115386
0.0131528
0.0148994
0.0167803
0.0187958
0.0209446
0.0232238
0.0256288
0.0281535
0.03079
0.0335288
0.0363611
0.0392728
0.0422516
0.0452844
0.0483573
0.0514564
0.0545677
0.0576776
0.0607728
0.0638408
0.06687
0.0698497
0.0727702
0.0756231
0.0784009
0.0810974
0.0837075
0.0862271
0.0886531
0.0909836
0.0932173
0.0953538
0.097394
0.0993372
0.101186
0.102941
0.104606
0.106182
0.107672
0.109077
0.110399
0.11164
0.112798
0.113873
0.114859
0.115747
0.116521
0.117157
0.117611
0.117827
0.117721
0.117145
0.115885
0.113606
0.109791
0.104246
0.0977691
0.0908572
0.0838221
0.0768607
0.0700962
0.0636045
0.0574315
0.0516033
0.0461337
0.0410282
0.0362871
0.0319068
0.0278835
0.0242113
0.0208791
0.017874
0.0151814
0.0127853
0.0106682
0.00881127
0.00719491
0.00579869
0.00460186
0.00358371
0.00272393
0.00200288
0.00140174
0.000902533
0.000487378
0.00014057
0.000180585
0.000588308
0.00104814
0.00156605
0.00214842
0.00280197
0.00353367
0.00435071
0.00526033
0.00626972
0.00738585
0.00861532
0.00996417
0.0114377
0.0130402
0.0147749
0.0166438
0.0186473
0.0207844
0.0230523
0.0254468
0.0279618
0.0305899
0.0333243
0.0361474
0.0390527
0.0420273
0.0450577
0.0481301
0.0512303
0.0543443
0.0574584
0.0605594
0.0636346
0.0666722
0.0696614
0.0725924
0.0754566
0.0782463
0.0809552
0.083578
0.0861105
0.0885495
0.0908928
0.0931391
0.0952879
0.0973394
0.0992942
0.101154
0.102919
0.104594
0.106178
0.107676
0.109088
0.110417
0.111663
0.112825
0.113903
0.114889
0.115776
0.116546
0.117173
0.11761
0.117802
0.117657
0.117023
0.115673
0.113259
0.109237
0.103563
0.0970095
0.0900547
0.0830006
0.0760373
0.0692833
0.0628116
0.0566658
0.0508704
0.045438
0.0403731
0.0356752
0.0313401
0.0273639
0.0237393
0.0204546
0.0174961
0.0148487
0.0124958
0.0104194
0.00860046
0.0070189
0.00565415
0.00448537
0.00349188
0.00265348
0.0019507
0.00136498
0.000878736
0.000474463
0.000136825
0.000178993
0.000583128
0.00103892
0.00155229
0.00212959
0.00277747
0.0035029
0.00431303
0.00521509
0.00621627
0.00732357
0.00854363
0.00988253
0.0113456
0.0129374
0.0146611
0.0165188
0.0185113
0.0206374
0.0228948
0.0252791
0.0277846
0.0304035
0.0331284
0.035947
0.0388483
0.0418199
0.0448486
0.0479206
0.0510219
0.0541386
0.0572568
0.0603632
0.0634451
0.0664906
0.0694888
0.0724297
0.0753044
0.0781054
0.080826
0.0834607
0.0860053
0.0884565
0.0908119
0.0930701
0.095231
0.0972932
0.0992585
0.101128
0.102903
0.104586
0.106179
0.107684
0.109103
0.110437
0.111688
0.112854
0.113934
0.114921
0.115806
0.116571
0.117189
0.117609
0.117777
0.117595
0.116903
0.115466
0.112921
0.108698
0.1029
0.0962725
0.0892775
0.0822065
0.0752429
0.0685006
0.0620497
0.0559314
0.0501689
0.0447735
0.0397489
0.0350935
0.0308025
0.0268722
0.0232938
0.0200547
0.0171409
0.0145367
0.0122249
0.0101871
0.0084039
0.006855
0.00551969
0.00437708
0.00340653
0.002588
0.0019022
0.00133079
0.000856595
0.000462437
0.000133337
0.000177561
0.000578468
0.00103063
0.00153993
0.00211267
0.00275548
0.00347529
0.00427922
0.0051745
0.00616833
0.0072677
0.00847928
0.00980922
0.0112629
0.012845
0.0145587
0.0164064
0.0183888
0.0205051
0.022753
0.0251285
0.027626
0.0302396
0.0329559
0.0357681
0.0386646
0.0416329
0.0446598
0.0477314
0.0508338
0.053953
0.057075
0.0601865
0.0632746
0.0663275
0.069334
0.072284
0.0751686
0.0779799
0.0807113
0.0833571
0.0859129
0.0883753
0.0907418
0.0930108
0.0951818
0.0972546
0.0992298
0.101109
0.102893
0.104584
0.106184
0.107696
0.109121
0.11046
0.111715
0.112885
0.113966
0.114954
0.115836
0.116596
0.117205
0.117609
0.117753
0.117535
0.116789
0.11527
0.112599
0.108186
0.102272
0.095575
0.0885433
0.0814577
0.074495
0.0677652
0.061335
0.0552438
0.0495134
0.0441537
0.0391676
0.0345529
0.030304
0.0264171
0.0228822
0.019686
0.0168141
0.01425
0.0119763
0.00997423
0.00822398
0.00670513
0.00539682
0.00427816
0.00332859
0.00252818
0.00185788
0.00129955
0.00083636
0.000451441
0.000130147
0.000176287
0.000574326
0.00102326
0.00152895
0.00209765
0.00273597
0.00345079
0.00424924
0.00513852
0.00612582
0.00721816
0.00842223
0.0097442
0.0111896
0.0127629
0.0144678
0.0163065
0.0182799
0.0203873
0.0226265
0.0249936
0.027483
0.0300883
0.0327998
0.0356076
0.0385006
0.0414663
0.0444918
0.0475633
0.0506667
0.0537882
0.0569137
0.0600299
0.0631238
0.0661834
0.0691975
0.0721559
0.0750494
0.0778702
0.0806114
0.0832673
0.0858334
0.088306
0.0906826
0.0929619
0.0951422
0.097224
0.0992079
0.101095
0.102887
0.104585
0.106192
0.10771
0.10914
0.110484
0.111743
0.112915
0.113998
0.114985
0.115866
0.116621
0.117221
0.117609
0.117732
0.11748
0.116683
0.115087
0.112299
0.107709
0.101687
0.094928
0.0878633
0.0807653
0.0738048
0.0670875
0.0606775
0.0546124
0.0489123
0.0435863
0.0386364
0.0340597
0.0298498
0.0260032
0.0225084
0.0193517
0.016518
0.0139907
0.0117518
0.00978212
0.00806176
0.00657008
0.00528615
0.00418909
0.0032584
0.00247432
0.00181796
0.00127142
0.000818127
0.000441532
0.000127273
0.000175167
0.000570685
0.00101679
0.0015193
0.00208446
0.00271883
0.00342929
0.00422293
0.00510695
0.00608852
0.00717469
0.00837216
0.00968714
0.0111252
0.0126909
0.014388
0.0162188
0.0181843
0.020284
0.0225159
0.0248762
0.0273603
0.0299584
0.0326641
0.0354673
0.0383568
0.0413202
0.0443444
0.0474158
0.0505203
0.0536439
0.0567727
0.0598932
0.0629923
0.066058
0.069079
0.0720449
0.0749466
0.0777759
0.0805259
0.0831908
0.0857659
0.0882475
0.090633
0.0929209
0.09511
0.0972001
0.0991919
0.101086
0.102885
0.10459
0.106203
0.107725
0.10916
0.110508
0.11177
0.112944
0.114028
0.115015
0.115894
0.116644
0.117236
0.11761
0.117713
0.117429
0.116585
0.114919
0.112024
0.107273
0.101154
0.0943378
0.0872441
0.080136
0.0731784
0.0664734
0.0600826
0.0540418
0.0483699
0.0430751
0.0381585
0.0336165
0.0294425
0.0256324
0.0221739
0.0190529
0.0162538
0.0137595
0.0115517
0.00961108
0.00791741
0.00644995
0.00518774
0.00410989
0.003196
0.00242643
0.00178245
0.0012464
0.000801907
0.000432715
0.000124716
0.000174193
0.000567516
0.00101116
0.00151091
0.00207298
0.00270393
0.0034106
0.00420007
0.00507952
0.00605613
0.00713695
0.00832869
0.0096376
0.0110693
0.0126284
0.0143187
0.0161425
0.0181011
0.020194
0.0224191
0.0247727
0.0272502
0.0298439
0.0325455
0.0353452
0.0382319
0.0411934
0.0442167
0.0472881
0.0503936
0.0535193
0.056651
0.0597753
0.0628792
0.0659504
0.0689775
0.0719501
0.0748589
0.0776958
0.0804537
0.0831266
0.0857098
0.0881996
0.0905933
0.0928886
0.095085
0.0971822
0.0991808
0.101082
0.102886
0.104597
0.106214
0.107742
0.10918
0.110532
0.111796
0.112972
0.114057
0.115043
0.11592
0.116666
0.117249
0.117611
0.117696
0.117384
0.116497
0.114767
0.111776
0.10688
0.100674
0.093808
0.0866892
0.0795728
0.0726186
0.0659254
0.0595526
0.0535342
0.047888
0.0426213
0.0377347
0.0332239
0.0290824
0.025305
0.0218788
0.0187895
0.016021
0.013556
0.0113757
0.00946072
0.00779057
0.00634445
0.00510132
0.00404036
0.00314122
0.00238437
0.00175127
0.00122442
0.000787656
0.000424967
0.000122469
0.000173355
0.000564791
0.00100631
0.0015037
0.00206312
0.00269113
0.00339454
0.00418043
0.00505596
0.00602832
0.00710454
0.00829137
0.00959507
0.0110213
0.0125747
0.0142592
0.0160772
0.0180299
0.0201171
0.0223369
0.024686
0.0271578
0.0297467
0.0324443
0.0352408
0.0381251
0.041085
0.0441075
0.047179
0.0502855
0.0534129
0.0565474
0.0596751
0.0627832
0.0658592
0.0688917
0.0718702
0.0747853
0.0776288
0.0803935
0.0830733
0.0856635
0.0881601
0.0905605
0.0928627
0.0950657
0.0971692
0.0991736
0.10108
0.10289
0.104605
0.106227
0.107758
0.1092
0.110554
0.11182
0.112998
0.114083
0.115069
0.115943
0.116685
0.117262
0.117613
0.117681
0.117344
0.116419
0.114632
0.111555
0.106531
0.100249
0.09334
0.0861998
0.0790768
0.0721264
0.0654442
0.0590876
0.0530893
0.0474662
0.0422246
0.0373646
0.0328814
0.0287685
0.0250198
0.0216221
0.0185606
0.0158189
0.0133793
0.0112231
0.00933032
0.00768061
0.006253
0.00502644
0.0039801
0.00309374
0.00234793
0.00172424
0.00120537
0.0007753
0.000418249
0.00012052
0.000172644
0.000562479
0.0010022
0.00149758
0.00205476
0.00268027
0.00338093
0.00416379
0.005036
0.00600476
0.00707709
0.00825977
0.00955907
0.0109806
0.0125293
0.0142088
0.0160218
0.0179695
0.0200516
0.0222664
0.0246105
0.0270786
0.0296641
0.0323586
0.0351526
0.0380349
0.0409935
0.0440154
0.0470871
0.0501945
0.0533236
0.0564604
0.0595912
0.0627028
0.065783
0.0688202
0.0718038
0.0747244
0.0775735
0.0803441
0.0830299
0.0856261
0.0881286
0.0905349
0.0928428
0.0950513
0.09716
0.0991695
0.101081
0.102895
0.104614
0.106239
0.107773
0.109218
0.110574
0.111842
0.113021
0.114106
0.115092
0.115964
0.116702
0.117273
0.117614
0.117667
0.117308
0.116351
0.114514
0.111363
0.106228
0.0998801
0.092934
0.0857758
0.0786476
0.0717009
0.0650287
0.0586866
0.0527061
0.0471031
0.0418835
0.0370467
0.0325875
0.0284994
0.0247755
0.0214023
0.0183647
0.015646
0.0132283
0.0110926
0.00921896
0.00758673
0.00617494
0.00496252
0.00392867
0.00305322
0.00231682
0.00170117
0.0011891
0.000764749
0.000412511
0.000118856
0.000172051
0.000560554
0.000998781
0.00149248
0.0020478
0.00267124
0.0033696
0.00414994
0.00501939
0.00598515
0.00705426
0.00823349
0.00952913
0.0109469
0.0124915
0.014167
0.0159758
0.0179194
0.0199975
0.0222084
0.0245487
0.0270134
0.0295957
0.0322877
0.0350795
0.0379602
0.0409178
0.0439393
0.0470112
0.0501194
0.0532499
0.0563887
0.0595221
0.0626368
0.0657206
0.0687617
0.0717497
0.0746748
0.0775288
0.0803043
0.0829952
0.0855964
0.0881041
0.0905152
0.0928278
0.0950408
0.0971539
0.0991675
0.101082
0.1029
0.104622
0.106251
0.107787
0.109234
0.110592
0.111862
0.113041
0.114127
0.115111
0.115982
0.116717
0.117282
0.117615
0.117656
0.117277
0.116292
0.114413
0.111199
0.10597
0.0995656
0.0925886
0.0854156
0.0782837
0.0713406
0.0646773
0.0583479
0.0523827
0.046797
0.0415962
0.0367791
0.0323402
0.0282731
0.0245702
0.0212177
0.0182003
0.015501
0.0131017
0.0109833
0.00912566
0.00750809
0.00610956
0.00490899
0.00388561
0.00301929
0.00229078
0.00168185
0.00117548
0.000755912
0.000407705
0.000117462
0.00017157
0.000558989
0.000996
0.00148834
0.00204214
0.0026639
0.0033604
0.00413869
0.00500591
0.00596924
0.00703574
0.00821216
0.00950484
0.0109195
0.0124609
0.0141331
0.0159386
0.0178788
0.0199538
0.0221617
0.0244988
0.0269606
0.0295405
0.0322303
0.0350204
0.0378998
0.0408566
0.0438778
0.0469499
0.0500589
0.0531906
0.0563311
0.0594666
0.0625839
0.0656706
0.068715
0.0717065
0.0746355
0.0774934
0.0802729
0.0829679
0.0855732
0.0880849
0.0905
0.0928165
0.0950333
0.09715
0.0991668
0.101085
0.102905
0.10463
0.106261
0.1078
0.109248
0.110608
0.111878
0.113058
0.114144
0.115128
0.115997
0.116728
0.117288
0.117614
0.117644
0.117248
0.116236
0.114318
0.111044
0.105746
0.0993005
0.0923006
0.0851171
0.077983
0.0710436
0.064388
0.0580693
0.052117
0.0465458
0.0413605
0.0365597
0.0321377
0.0280879
0.0244023
0.0210668
0.0180659
0.0153825
0.0129983
0.010894
0.00904949
0.00744391
0.00605621
0.00486531
0.00385047
0.0029916
0.00226952
0.00166608
0.00116436
0.000748698
0.000403781
0.000116325
0.000171193
0.000557764
0.000993823
0.0014851
0.00203771
0.00265815
0.0033532
0.00412989
0.00499536
0.00595679
0.00702124
0.00819548
0.00948584
0.010898
0.012437
0.0141065
0.0159094
0.017847
0.0199193
0.0221246
0.0244596
0.0269193
0.0294974
0.0321855
0.0349743
0.0378528
0.040809
0.04383
0.0469023
0.0500118
0.0531445
0.0562864
0.0594236
0.062543
0.065632
0.068679
0.0716733
0.0746052
0.0774662
0.0802489
0.0829471
0.0855557
0.0880706
0.0904889
0.0928084
0.0950281
0.0971476
0.0991671
0.101088
0.10291
0.104637
0.10627
0.10781
0.10926
0.11062
0.111892
0.113072
0.114158
0.115141
0.116008
0.116737
0.117293
0.117613
0.117633
0.117222
0.116188
0.114236
0.11091
0.105561
0.0990861
0.0920699
0.0848792
0.0777441
0.070808
0.064159
0.057849
0.0519071
0.0463474
0.0411745
0.0363867
0.031978
0.027942
0.0242701
0.020948
0.0179602
0.0152893
0.012917
0.0108239
0.00898963
0.00739347
0.00601429
0.00483099
0.00382286
0.00296985
0.00225282
0.00165369
0.00115562
0.000743029
0.000400698
0.000115431
0.000170915
0.00055686
0.000992218
0.00148271
0.00203445
0.00265391
0.00334789
0.0041234
0.00498759
0.00594762
0.00701056
0.00818319
0.00947185
0.0108823
0.0124193
0.014087
0.0158879
0.0178236
0.019894
0.0220975
0.0244307
0.026889
0.0294656
0.0321526
0.0349404
0.0378182
0.040774
0.0437949
0.0468673
0.0499773
0.0531108
0.0562536
0.0593922
0.0625131
0.0656039
0.0686528
0.0716492
0.0745833
0.0774466
0.0802317
0.0829323
0.0855432
0.0880605
0.0904811
0.0928029
0.0950247
0.0971462
0.0991676
0.10109
0.102914
0.104642
0.106276
0.107818
0.109269
0.11063
0.111902
0.113082
0.114168
0.115151
0.116017
0.116744
0.117297
0.117611
0.117624
0.117202
0.11615
0.114171
0.110805
0.10542
0.0989244
0.0918969
0.0847014
0.0775659
0.0706327
0.0639887
0.0576853
0.0517512
0.0462002
0.0410365
0.0362584
0.0318597
0.0278339
0.0241721
0.0208601
0.0178819
0.0152203
0.0128569
0.010772
0.00894536
0.00735618
0.00598329
0.00480562
0.00380245
0.00295377
0.00224048
0.00164453
0.00114916
0.000738838
0.000398418
0.00011477
0.000170733
0.000556266
0.000991161
0.00148113
0.0020323
0.00265113
0.0033444
0.00411913
0.00498247
0.00594159
0.00700354
0.00817511
0.00946264
0.0108719
0.0124077
0.0140741
0.0158738
0.0178083
0.0198774
0.0220797
0.0244118
0.026869
0.0294448
0.032131
0.0349182
0.0377956
0.0407511
0.0437719
0.0468444
0.0499547
0.0530887
0.0562322
0.0593716
0.0624935
0.0655855
0.0686357
0.0716335
0.074569
0.0774339
0.0802205
0.0829227
0.0855352
0.0880541
0.0904762
0.0927994
0.0950227
0.0971455
0.0991682
0.101092
0.102917
0.104646
0.106281
0.107823
0.109275
0.110637
0.111909
0.113089
0.114175
0.115157
0.116023
0.116748
0.117299
0.11761
0.117617
0.117187
0.116124
0.114127
0.110733
0.105326
0.0988163
0.0917817
0.0845832
0.0774477
0.0705165
0.0638759
0.057577
0.0516481
0.0461028
0.0409454
0.0361737
0.0317816
0.0277625
0.0241075
0.0208021
0.0178303
0.0151749
0.0128172
0.0107377
0.00891617
0.00733159
0.00596286
0.0047889
0.003789
0.00294317
0.00223234
0.00163849
0.0011449
0.000736074
0.000396915
0.000114334
0.000170642
0.000555972
0.000990639
0.00148036
0.00203124
0.00264975
0.00334268
0.00411703
0.00497995
0.00593862
0.00700008
0.00817113
0.00945812
0.0108668
0.012402
0.0140678
0.0158669
0.0178007
0.0198693
0.022071
0.0244026
0.0268593
0.0294346
0.0321204
0.0349074
0.0377845
0.0407399
0.0437606
0.0468332
0.0499437
0.0530779
0.0562218
0.0593616
0.062484
0.0655765
0.0686274
0.0716258
0.0745621
0.0774277
0.0802151
0.082918
0.0855314
0.088051
0.0904738
0.0927978
0.0950218
0.0971452
0.0991685
0.101093
0.102919
0.104648
0.106283
0.107826
0.109278
0.11064
0.111912
0.113093
0.114178
0.11516
0.116025
0.11675
0.1173
0.117609
0.117614
0.11718
0.11611
0.114104
0.110696
0.105278
0.0987623
0.0917244
0.0845245
0.0773891
0.0704589
0.06382
0.0575233
0.051597
0.0460547
0.0409003
0.0361318
0.031743
0.0277273
0.0240756
0.0207734
0.0178048
0.0151524
0.0127976
0.0107209
0.00890177
0.00731946
0.00595278
0.00478064
0.00378236
0.00293793
0.00222832
0.0016355
0.00114279
0.000734707
0.000396171
0.000114118
0.000170642
0.000555972
0.000990639
0.00148036
0.00203124
0.00264975
0.00334268
0.00411703
0.00497995
0.00593862
0.00700008
0.00817113
0.00945812
0.0108668
0.012402
0.0140678
0.0158669
0.0178007
0.0198693
0.022071
0.0244026
0.0268593
0.0294346
0.0321204
0.0349074
0.0377845
0.0407399
0.0437606
0.0468332
0.0499437
0.0530779
0.0562218
0.0593616
0.062484
0.0655765
0.0686274
0.0716258
0.0745621
0.0774277
0.0802151
0.082918
0.0855314
0.088051
0.0904738
0.0927978
0.0950218
0.0971452
0.0991685
0.101093
0.102919
0.104648
0.106283
0.107826
0.109278
0.11064
0.111912
0.113093
0.114178
0.11516
0.116025
0.11675
0.1173
0.117609
0.117614
0.11718
0.11611
0.114104
0.110696
0.105278
0.0987623
0.0917244
0.0845246
0.0773891
0.0704589
0.06382
0.0575234
0.0515971
0.0460547
0.0409003
0.0361318
0.031743
0.0277273
0.0240756
0.0207734
0.0178048
0.0151524
0.0127976
0.0107209
0.00890177
0.00731946
0.00595278
0.00478064
0.00378236
0.00293793
0.00222832
0.0016355
0.00114279
0.000734707
0.000396171
0.000114118
0.000170733
0.000556266
0.000991161
0.00148113
0.0020323
0.00265113
0.0033444
0.00411913
0.00498247
0.00594159
0.00700354
0.00817511
0.00946264
0.0108719
0.0124077
0.0140741
0.0158738
0.0178083
0.0198774
0.0220797
0.0244118
0.026869
0.0294448
0.032131
0.0349182
0.0377956
0.0407511
0.0437719
0.0468444
0.0499547
0.0530887
0.0562322
0.0593716
0.0624935
0.0655855
0.0686357
0.0716335
0.074569
0.0774339
0.0802205
0.0829227
0.0855352
0.0880541
0.0904762
0.0927994
0.0950227
0.0971455
0.0991682
0.101092
0.102917
0.104646
0.106281
0.107823
0.109275
0.110637
0.111909
0.113089
0.114175
0.115157
0.116023
0.116748
0.117299
0.11761
0.117617
0.117187
0.116124
0.114127
0.110733
0.105326
0.0988163
0.0917817
0.0845833
0.0774478
0.0705165
0.0638759
0.057577
0.0516481
0.0461028
0.0409454
0.0361737
0.0317816
0.0277626
0.0241075
0.0208021
0.0178303
0.0151749
0.0128172
0.0107377
0.00891618
0.0073316
0.00596286
0.0047889
0.003789
0.00294317
0.00223234
0.00163849
0.0011449
0.000736075
0.000396915
0.000114334
0.000170915
0.00055686
0.000992218
0.00148271
0.00203445
0.00265391
0.00334789
0.0041234
0.00498759
0.00594762
0.00701056
0.00818319
0.00947184
0.0108823
0.0124193
0.014087
0.0158879
0.0178236
0.019894
0.0220975
0.0244307
0.026889
0.0294656
0.0321526
0.0349404
0.0378182
0.040774
0.0437949
0.0468673
0.0499773
0.0531108
0.0562536
0.0593922
0.0625131
0.0656039
0.0686528
0.0716492
0.0745833
0.0774466
0.0802317
0.0829323
0.0855432
0.0880605
0.0904811
0.0928029
0.0950247
0.0971462
0.0991676
0.10109
0.102914
0.104642
0.106276
0.107818
0.109269
0.11063
0.111902
0.113082
0.114168
0.115151
0.116017
0.116744
0.117297
0.117611
0.117624
0.117202
0.11615
0.114171
0.110805
0.10542
0.0989245
0.091897
0.0847014
0.077566
0.0706328
0.0639887
0.0576854
0.0517512
0.0462002
0.0410366
0.0362585
0.0318598
0.027834
0.0241722
0.0208601
0.017882
0.0152204
0.0128569
0.010772
0.00894538
0.00735619
0.0059833
0.00480563
0.00380246
0.00295377
0.00224048
0.00164453
0.00114916
0.000738839
0.000398419
0.00011477
0.000171193
0.000557764
0.000993823
0.0014851
0.00203771
0.00265815
0.0033532
0.00412989
0.00499536
0.00595679
0.00702124
0.00819548
0.00948584
0.010898
0.012437
0.0141065
0.0159094
0.017847
0.0199193
0.0221246
0.0244595
0.0269193
0.0294973
0.0321855
0.0349743
0.0378528
0.040809
0.04383
0.0469022
0.0500118
0.0531445
0.0562864
0.0594236
0.062543
0.065632
0.068679
0.0716733
0.0746052
0.0774662
0.0802489
0.0829471
0.0855557
0.0880706
0.0904889
0.0928084
0.0950281
0.0971475
0.0991671
0.101088
0.10291
0.104637
0.10627
0.10781
0.10926
0.11062
0.111892
0.113072
0.114158
0.115141
0.116008
0.116737
0.117293
0.117613
0.117633
0.117222
0.116188
0.114236
0.11091
0.105561
0.0990862
0.09207
0.0848793
0.0777442
0.0708081
0.0641591
0.0578491
0.0519071
0.0463474
0.0411746
0.0363868
0.0319781
0.0279421
0.0242701
0.0209481
0.0179602
0.0152893
0.012917
0.0108239
0.00898964
0.00739349
0.0060143
0.004831
0.00382287
0.00296985
0.00225283
0.00165369
0.00115562
0.00074303
0.000400698
0.000115431
0.00017157
0.000558989
0.000996
0.00148834
0.00204214
0.0026639
0.0033604
0.00413869
0.00500591
0.00596924
0.00703574
0.00821216
0.00950484
0.0109195
0.0124609
0.0141331
0.0159386
0.0178788
0.0199538
0.0221617
0.0244988
0.0269606
0.0295405
0.0322303
0.0350204
0.0378998
0.0408566
0.0438778
0.0469499
0.0500589
0.0531906
0.0563311
0.0594666
0.0625839
0.0656706
0.068715
0.0717065
0.0746354
0.0774933
0.0802729
0.0829678
0.0855732
0.0880849
0.0905
0.0928165
0.0950333
0.0971499
0.0991668
0.101085
0.102905
0.10463
0.106261
0.1078
0.109248
0.110608
0.111878
0.113058
0.114144
0.115128
0.115997
0.116728
0.117288
0.117614
0.117644
0.117248
0.116236
0.114318
0.111044
0.105746
0.0993006
0.0923007
0.0851172
0.0779831
0.0710437
0.0643881
0.0580694
0.0521171
0.0465459
0.0413606
0.0365598
0.0321378
0.028088
0.0244023
0.0210669
0.0180659
0.0153825
0.0129983
0.0108941
0.00904951
0.00744393
0.00605623
0.00486532
0.00385048
0.00299161
0.00226953
0.00166608
0.00116436
0.0007487
0.000403782
0.000116325
0.000172051
0.000560554
0.000998781
0.00149248
0.0020478
0.00267124
0.0033696
0.00414994
0.00501939
0.00598515
0.00705426
0.00823348
0.00952913
0.0109469
0.0124915
0.014167
0.0159758
0.0179194
0.0199975
0.0222084
0.0245487
0.0270134
0.0295957
0.0322877
0.0350794
0.0379602
0.0409178
0.0439393
0.0470111
0.0501194
0.0532499
0.0563887
0.0595221
0.0626368
0.0657206
0.0687617
0.0717497
0.0746748
0.0775288
0.0803043
0.0829952
0.0855964
0.0881041
0.0905151
0.0928277
0.0950408
0.0971539
0.0991674
0.101082
0.1029
0.104622
0.106251
0.107787
0.109234
0.110592
0.111862
0.113041
0.114127
0.115111
0.115982
0.116717
0.117282
0.117615
0.117656
0.117277
0.116292
0.114413
0.111199
0.10597
0.0995657
0.0925887
0.0854158
0.0782838
0.0713407
0.0646774
0.058348
0.0523828
0.0467971
0.0415963
0.0367792
0.0323403
0.0282732
0.0245703
0.0212178
0.0182003
0.015501
0.0131017
0.0109833
0.00912568
0.00750812
0.00610958
0.00490901
0.00388562
0.0030193
0.00229078
0.00168185
0.00117548
0.000755914
0.000407706
0.000117463
0.000172644
0.000562479
0.0010022
0.00149758
0.00205476
0.00268027
0.00338093
0.00416379
0.005036
0.00600475
0.00707709
0.00825976
0.00955906
0.0109806
0.0125293
0.0142088
0.0160218
0.0179695
0.0200516
0.0222663
0.0246105
0.0270786
0.0296641
0.0323586
0.0351525
0.0380349
0.0409935
0.0440154
0.0470871
0.0501945
0.0533236
0.0564604
0.0595911
0.0627028
0.065783
0.0688202
0.0718038
0.0747244
0.0775735
0.0803441
0.0830299
0.085626
0.0881286
0.0905349
0.0928428
0.0950512
0.09716
0.0991695
0.101081
0.102895
0.104614
0.106239
0.107773
0.109218
0.110574
0.111842
0.113021
0.114106
0.115092
0.115964
0.116702
0.117273
0.117614
0.117667
0.117308
0.116351
0.114514
0.111363
0.106229
0.0998802
0.0929342
0.0857759
0.0786477
0.071701
0.0650288
0.0586868
0.0527062
0.0471033
0.0418837
0.0370468
0.0325876
0.0284995
0.0247755
0.0214024
0.0183647
0.015646
0.0132283
0.0110926
0.00921899
0.00758676
0.00617496
0.00496253
0.00392869
0.00305323
0.00231683
0.00170118
0.00118911
0.000764752
0.000412513
0.000118857
0.000173355
0.000564791
0.00100631
0.0015037
0.00206312
0.00269112
0.00339454
0.00418043
0.00505596
0.00602831
0.00710454
0.00829136
0.00959507
0.0110213
0.0125747
0.0142592
0.0160772
0.0180299
0.0201171
0.0223369
0.024686
0.0271578
0.0297467
0.0324443
0.0352408
0.0381251
0.041085
0.0441075
0.047179
0.0502855
0.0534129
0.0565473
0.0596751
0.0627832
0.0658592
0.0688916
0.0718702
0.0747853
0.0776288
0.0803934
0.0830733
0.0856635
0.0881601
0.0905605
0.0928627
0.0950657
0.0971692
0.0991736
0.10108
0.10289
0.104605
0.106227
0.107758
0.1092
0.110554
0.11182
0.112998
0.114083
0.115069
0.115943
0.116685
0.117262
0.117613
0.117681
0.117344
0.116419
0.114632
0.111555
0.106531
0.100249
0.0933402
0.0862
0.079077
0.0721265
0.0654443
0.0590877
0.0530895
0.0474663
0.0422247
0.0373647
0.0328815
0.0287686
0.0250199
0.0216222
0.0185606
0.0158189
0.0133793
0.0112231
0.00933036
0.00768064
0.00625302
0.00502646
0.00398012
0.00309375
0.00234794
0.00172425
0.00120537
0.000775303
0.00041825
0.000120521
0.000174193
0.000567516
0.00101115
0.00151091
0.00207298
0.00270393
0.0034106
0.00420007
0.00507951
0.00605613
0.00713694
0.00832868
0.0096376
0.0110693
0.0126284
0.0143187
0.0161425
0.0181011
0.020194
0.0224191
0.0247727
0.0272502
0.0298439
0.0325455
0.0353452
0.0382319
0.0411934
0.0442167
0.0472881
0.0503936
0.0535192
0.056651
0.0597753
0.0628792
0.0659504
0.0689775
0.0719501
0.0748589
0.0776958
0.0804537
0.0831266
0.0857098
0.0881996
0.0905933
0.0928886
0.095085
0.0971822
0.0991808
0.101082
0.102886
0.104597
0.106214
0.107742
0.10918
0.110532
0.111796
0.112972
0.114057
0.115043
0.11592
0.116666
0.11725
0.117611
0.117696
0.117384
0.116498
0.114767
0.111776
0.10688
0.100674
0.0938082
0.0866894
0.079573
0.0726188
0.0659256
0.0595527
0.0535343
0.0478881
0.0426215
0.0377348
0.033224
0.0290825
0.025305
0.0218789
0.0187896
0.0160211
0.013556
0.0113758
0.00946076
0.00779061
0.00634447
0.00510135
0.00404038
0.00314123
0.00238439
0.00175128
0.00122443
0.00078766
0.000424969
0.000122469
0.000175167
0.000570684
0.00101679
0.0015193
0.00208446
0.00271883
0.00342929
0.00422293
0.00510694
0.00608852
0.00717469
0.00837216
0.00968714
0.0111252
0.0126909
0.014388
0.0162188
0.0181843
0.020284
0.0225159
0.0248762
0.0273602
0.0299583
0.0326641
0.0354673
0.0383568
0.0413202