/*--------------------------------*- C++ -*----------------------------------*\
| =========                 |                                                 |
| \\      /  F ield         | OpenFOAM: The Open Source CFD Toolbox           |
|  \\    /   O peration     | Version:  2.3.x                                 |
|   \\  /    A nd           | Web:      www.OpenFOAM.org                      |
|    \\/     M anipulation  |                                                 |
\*---------------------------------------------------------------------------*/
FoamFile
{
    version     2.0;
    format      ascii;
    class       volScalarField;
    location    "0.5";
    object      N2;
}
// * * * * * * * * * * * * * * * * * * * * * * * * * * * * * * * * * * * * * //

dimensions      [0 0 0 0 0 0 0];

internalField   nonuniform List<scalar> 
4000
(
0.00112244
0.00365686
0.00651576
0.00973601
0.0133564
0.0174175
0.0219608
0.0270289
0.032664
0.0389077
0.0457998
0.053377
0.0616723
0.0707136
0.0805227
0.0911139
0.102493
0.114659
0.127598
0.141288
0.155698
0.170787
0.186503
0.202787
0.219573
0.236786
0.254374
0.27223
0.290276
0.308429
0.32661
0.34474
0.362745
0.380554
0.398103
0.415332
0.432191
0.448633
0.46462
0.480119
0.495104
0.509555
0.523459
0.536807
0.549593
0.561819
0.573488
0.584607
0.595187
0.60524
0.614778
0.623818
0.632377
0.640471
0.64812
0.655342
0.662155
0.668578
0.674631
0.68033
0.685696
0.690744
0.695481
0.699841
0.703946
0.707909
0.711636
0.715145
0.718456
0.721589
0.724563
0.727389
0.730075
0.732626
0.735043
0.73733
0.739489
0.74152
0.743426
0.745208
0.746867
0.748405
0.749826
0.751129
0.752317
0.753396
0.754368
0.755238
0.756012
0.756694
0.757292
0.757812
0.758259
0.758642
0.758967
0.759239
0.759467
0.759657
0.759815
0.759947
0.00111536
0.00363377
0.00647469
0.00967492
0.0132732
0.0173098
0.0218265
0.0268655
0.0324693
0.0386793
0.0455355
0.053075
0.061331
0.0703317
0.0800992
0.0906485
0.101987
0.114111
0.127011
0.140664
0.155041
0.170099
0.185791
0.202057
0.218836
0.236058
0.253621
0.271467
0.289513
0.307674
0.32587
0.344019
0.362048
0.379886
0.397466
0.414731
0.431627
0.448108
0.464134
0.479673
0.494698
0.50919
0.523132
0.536517
0.54934
0.561601
0.573302
0.584451
0.595062
0.605142
0.614706
0.623769
0.632349
0.640462
0.648128
0.655365
0.662192
0.668627
0.67469
0.680398
0.685771
0.690826
0.695566
0.699933
0.70405
0.708017
0.711747
0.715258
0.71857
0.721703
0.724677
0.727503
0.730188
0.732737
0.735153
0.737439
0.739595
0.741623
0.743525
0.745303
0.746958
0.748492
0.749907
0.751204
0.752387
0.75346
0.754425
0.755289
0.756057
0.756734
0.757326
0.75784
0.758283
0.758661
0.758981
0.75925
0.759475
0.759662
0.759817
0.759947
0.00110552
0.0036016
0.00641699
0.00958825
0.0131539
0.0171544
0.0216312
0.0266267
0.0321834
0.038343
0.0451456
0.0526285
0.0608255
0.0697652
0.0794705
0.0899569
0.101232
0.113295
0.126134
0.13973
0.154053
0.169061
0.184706
0.200928
0.217662
0.234864
0.252428
0.270276
0.288328
0.306502
0.324716
0.342893
0.360956
0.378833
0.39646
0.413775
0.430726
0.447264
0.463351
0.478951
0.494039
0.508593
0.522597
0.536043
0.548925
0.561243
0.573
0.584205
0.59486
0.604984
0.614589
0.623691
0.632306
0.640453
0.648148
0.655411
0.662262
0.668718
0.674798
0.680521
0.685905
0.690967
0.695706
0.700067
0.70427
0.708228
0.711952
0.715461
0.718771
0.721904
0.724877
0.727702
0.730385
0.732932
0.735344
0.737625
0.739775
0.741798
0.743693
0.745463
0.747109
0.748634
0.75004
0.751327
0.7525
0.753562
0.754517
0.75537
0.756128
0.756795
0.757378
0.757883
0.758317
0.758688
0.759002
0.759266
0.759486
0.759669
0.759821
0.759948
0.00109433
0.00356505
0.00635164
0.00949028
0.0130193
0.0169788
0.0214104
0.0263564
0.0318594
0.0379612
0.0447023
0.0521204
0.0602495
0.0691191
0.0787525
0.0891663
0.100369
0.11236
0.12513
0.13866
0.152921
0.167873
0.183469
0.199653
0.216359
0.233525
0.251065
0.268901
0.286952
0.305134
0.323368
0.341572
0.359671
0.377593
0.395271
0.412644
0.429657
0.446262
0.462418
0.478091
0.493252
0.507879
0.521957
0.535475
0.548427
0.560812
0.572632
0.5839
0.594618
0.604799
0.614457
0.623607
0.632267
0.640455
0.648188
0.655485
0.662365
0.668848
0.674951
0.680695
0.686096
0.691173
0.695918
0.70029
0.70451
0.708475
0.712205
0.715716
0.719027
0.722161
0.725134
0.727957
0.730637
0.73318
0.735587
0.737861
0.740004
0.742017
0.743903
0.745663
0.747298
0.748811
0.750203
0.751477
0.752637
0.753685
0.754626
0.755467
0.756212
0.756866
0.757438
0.757933
0.758358
0.75872
0.759027
0.759284
0.759499
0.759677
0.759826
0.75995
0.00108295
0.00352796
0.00628543
0.00939117
0.0128832
0.0168014
0.0211872
0.026083
0.0315314
0.0375743
0.0442525
0.0516039
0.0596632
0.0684603
0.0780193
0.0883575
0.0994844
0.111401
0.124098
0.137558
0.151753
0.166646
0.18219
0.198329
0.215022
0.232142
0.249652
0.267472
0.285518
0.303708
0.321958
0.34019
0.358325
0.376292
0.394022
0.411454
0.428532
0.445207
0.461436
0.477185
0.492423
0.507129
0.521285
0.53488
0.547908
0.560368
0.572262
0.583595
0.594377
0.604619
0.614333
0.623537
0.632246
0.640479
0.648252
0.655586
0.6625
0.669011
0.675141
0.680907
0.686327
0.691421
0.69617
0.700552
0.704782
0.708755
0.712489
0.716003
0.719316
0.72245
0.725423
0.728244
0.730921
0.733458
0.735858
0.738124
0.740258
0.742261
0.744135
0.745882
0.747504
0.749003
0.750381
0.75164
0.752784
0.753816
0.754743
0.755569
0.7563
0.756942
0.757501
0.757985
0.7584
0.758754
0.759052
0.759303
0.759512
0.759686
0.75983
0.759951
0.00107197
0.00349222
0.00622172
0.00929593
0.0127526
0.0166313
0.0209734
0.025821
0.0312169
0.037203
0.0438203
0.051107
0.0590984
0.0678248
0.077311
0.0875751
0.0986275
0.11047
0.123095
0.136486
0.150615
0.165446
0.180933
0.197021
0.213657
0.230757
0.248252
0.266061
0.284106
0.302304
0.320572
0.33883
0.357001
0.375012
0.392794
0.410284
0.427425
0.444169
0.460471
0.476295
0.491611
0.506395
0.52063
0.534303
0.547408
0.559942
0.571911
0.583312
0.594158
0.60446
0.614233
0.62349
0.632249
0.640527
0.648342
0.655713
0.66266
0.669201
0.675357
0.681145
0.686584
0.691694
0.696444
0.700835
0.705072
0.709051
0.712789
0.716305
0.71962
0.722754
0.725726
0.728544
0.731217
0.733748
0.736141
0.738399
0.740522
0.742514
0.744375
0.746108
0.747715
0.749199
0.750561
0.751804
0.752932
0.753949
0.75486
0.755671
0.756388
0.757016
0.757564
0.758036
0.758441
0.758786
0.759077
0.759322
0.759525
0.759694
0.759835
0.759952
0.00106173
0.00345889
0.00616236
0.00920729
0.0126311
0.0164732
0.0207747
0.0255777
0.0309247
0.036858
0.0434184
0.0506447
0.0585723
0.0672321
0.0766497
0.0868437
0.0978254
0.109598
0.122154
0.135479
0.149546
0.16432
0.179758
0.19582
0.212402
0.229465
0.246934
0.264731
0.282772
0.300976
0.31926
0.337544
0.355749
0.373802
0.391633
0.409179
0.426382
0.443192
0.459564
0.475461
0.490851
0.505711
0.520022
0.53377
0.546949
0.559555
0.571591
0.583059
0.59397
0.604332
0.614161
0.62347
0.632277
0.640599
0.648454
0.655861
0.662839
0.669409
0.675588
0.681397
0.686854
0.691978
0.696726
0.701124
0.705369
0.709352
0.713093
0.716611
0.719926
0.72306
0.726029
0.728845
0.731513
0.734038
0.736423
0.738671
0.740783
0.742763
0.744611
0.74633
0.747923
0.749391
0.750737
0.751964
0.753075
0.754077
0.754973
0.755769
0.756472
0.757088
0.757623
0.758085
0.758481
0.758817
0.759101
0.759339
0.759538
0.759702
0.759839
0.759954
0.00105238
0.00342845
0.00610819
0.00912646
0.0125204
0.0163293
0.0205939
0.0253563
0.0306589
0.036544
0.0430525
0.0502235
0.0580927
0.0666914
0.0760457
0.086175
0.0970915
0.108799
0.121291
0.134553
0.148561
0.16328
0.178664
0.194669
0.211225
0.228265
0.245717
0.263503
0.281542
0.299753
0.318052
0.33636
0.354597
0.372689
0.390567
0.408166
0.425427
0.442299
0.458737
0.474702
0.490163
0.505094
0.519476
0.533296
0.546544
0.559222
0.57132
0.58285
0.59382
0.604238
0.614119
0.623477
0.632329
0.640691
0.648583
0.656023
0.663031
0.669626
0.675827
0.681655
0.687127
0.692264
0.697007
0.701411
0.705661
0.709648
0.713391
0.716909
0.720223
0.723357
0.726324
0.729136
0.731799
0.734317
0.736694
0.738932
0.741034
0.743001
0.744836
0.746542
0.748119
0.749573
0.750903
0.752114
0.753211
0.754197
0.755078
0.755861
0.75655
0.757154
0.757678
0.758131
0.758517
0.758846
0.759123
0.759356
0.759549
0.75971
0.759843
0.759955
0.00104396
0.00340107
0.00605949
0.00905383
0.012421
0.0162001
0.0204317
0.0251577
0.0304205
0.0362623
0.0427243
0.0498456
0.0576621
0.0662056
0.0755028
0.0855737
0.096431
0.108079
0.120514
0.133721
0.147676
0.162348
0.177701
0.193656
0.210174
0.227186
0.244619
0.262394
0.280432
0.298649
0.316963
0.335293
0.35356
0.371689
0.38961
0.407257
0.424572
0.441502
0.458001
0.474029
0.489555
0.504552
0.519
0.532884
0.546197
0.558934
0.571094
0.582682
0.593706
0.604176
0.614105
0.623508
0.6324
0.640799
0.648724
0.656194
0.663228
0.669845
0.676066
0.681909
0.687395
0.692541
0.697275
0.701685
0.705941
0.709931
0.713675
0.717192
0.720506
0.723638
0.726603
0.729411
0.732068
0.734579
0.736948
0.739177
0.741268
0.743224
0.745047
0.746738
0.748302
0.749741
0.751057
0.752254
0.753335
0.754307
0.755175
0.755945
0.756622
0.757215
0.757729
0.758172
0.758551
0.758873
0.759144
0.759371
0.75956
0.759717
0.759847
0.759956
0.00103648
0.00337674
0.00601622
0.00898932
0.0123328
0.0160855
0.0202878
0.0249816
0.0302091
0.0360126
0.0424333
0.0495104
0.0572801
0.0657747
0.075021
0.0850397
0.0958442
0.107439
0.119822
0.132978
0.146885
0.161508
0.176813
0.19274
0.209232
0.226223
0.243641
0.261408
0.279445
0.297668
0.315996
0.334346
0.352641
0.370804
0.388764
0.406456
0.42382
0.440803
0.457357
0.473444
0.489029
0.504085
0.518593
0.532537
0.54591
0.558701
0.570915
0.582555
0.593627
0.604143
0.614115
0.623557
0.632485
0.640917
0.648872
0.656368
0.663424
0.670061
0.676299
0.682156
0.687653
0.692808
0.697534
0.701947
0.706205
0.710197
0.713941
0.717458
0.72077
0.7239
0.726861
0.729665
0.732317
0.734822
0.737183
0.739402
0.741483
0.743428
0.745239
0.746918
0.748469
0.749895
0.751197
0.75238
0.753448
0.754407
0.755263
0.756021
0.756687
0.75727
0.757775
0.75821
0.758581
0.758896
0.759162
0.759384
0.759569
0.759723
0.75985
0.759957
0.0010299
0.00335534
0.00597818
0.00893264
0.0122553
0.0159848
0.0201615
0.024827
0.0300236
0.0357935
0.042178
0.0492163
0.056945
0.0653965
0.0745981
0.084571
0.095329
0.106878
0.119215
0.132328
0.146195
0.160788
0.17605
0.191943
0.208408
0.225379
0.242783
0.260543
0.278579
0.296808
0.315149
0.333519
0.351838
0.370032
0.388028
0.405761
0.423169
0.440199
0.456804
0.472942
0.48858
0.50369
0.51825
0.532246
0.545669
0.558512
0.570775
0.582461
0.593577
0.604134
0.614143
0.62362
0.632579
0.64104
0.64902
0.656538
0.663614
0.670268
0.67652
0.682389
0.687895
0.693058
0.697773
0.702189
0.70645
0.710442
0.714185
0.717701
0.721012
0.724139
0.727097
0.729897
0.732543
0.735042
0.737395
0.739606
0.741678
0.743612
0.745412
0.74708
0.748619
0.750033
0.751323
0.752493
0.753549
0.754497
0.755341
0.756088
0.756745
0.757319
0.757815
0.758243
0.758608
0.758917
0.759178
0.759396
0.759578
0.759728
0.759853
0.759958
0.00102417
0.00333673
0.00594509
0.00888333
0.0121879
0.0158973
0.0200517
0.0246927
0.0298625
0.0356033
0.0419563
0.048961
0.056654
0.065068
0.0742308
0.0841638
0.0948814
0.10639
0.118687
0.13176
0.145587
0.160142
0.175378
0.191247
0.207692
0.224646
0.242039
0.259793
0.277829
0.296065
0.314417
0.332804
0.351147
0.369368
0.387397
0.405165
0.422613
0.439685
0.456334
0.472518
0.488203
0.503361
0.517969
0.532013
0.54548
0.558366
0.57067
0.582396
0.59355
0.604142
0.614184
0.62369
0.632677
0.641162
0.649164
0.656701
0.663794
0.670461
0.676724
0.682603
0.688116
0.693284
0.697994
0.702411
0.706673
0.710665
0.714407
0.717921
0.721229
0.724354
0.727309
0.730104
0.732746
0.735238
0.737584
0.739788
0.741851
0.743776
0.745566
0.747224
0.748752
0.750155
0.751433
0.752593
0.753639
0.754576
0.75541
0.756148
0.756796
0.757362
0.757851
0.758272
0.758631
0.758936
0.759192
0.759407
0.759585
0.759733
0.759856
0.759959
0.00101925
0.00332072
0.00591663
0.00884095
0.01213
0.015822
0.0199574
0.0245774
0.0297241
0.0354399
0.0417659
0.0487418
0.0564042
0.0647862
0.0739157
0.0838145
0.0944976
0.105972
0.118235
0.131277
0.145078
0.159599
0.174807
0.190653
0.207079
0.224019
0.241402
0.259152
0.277189
0.29543
0.313793
0.332196
0.350559
0.368805
0.386861
0.404662
0.422144
0.439253
0.455941
0.472165
0.48789
0.503089
0.517738
0.531821
0.545328
0.558253
0.570594
0.582354
0.593541
0.604163
0.614232
0.623764
0.632774
0.64128
0.6493
0.656853
0.663959
0.670638
0.67691
0.682795
0.688313
0.693484
0.698195
0.702612
0.706874
0.710865
0.714605
0.718116
0.721422
0.724544
0.727496
0.730287
0.732924
0.735411
0.737751
0.739947
0.742002
0.743919
0.745701
0.747349
0.748868
0.750261
0.75153
0.75268
0.753716
0.754644
0.75547
0.7562
0.75684
0.757399
0.757882
0.758297
0.758652
0.758952
0.759205
0.759416
0.759592
0.759737
0.759858
0.759959
0.00101508
0.00330714
0.0058925
0.00880501
0.0120808
0.0157583
0.0198774
0.0244796
0.0296069
0.0353015
0.0416047
0.0485562
0.0561928
0.0645476
0.0736488
0.0835186
0.0941722
0.105617
0.117851
0.130863
0.144635
0.159134
0.174322
0.19015
0.206561
0.223489
0.240865
0.258612
0.27665
0.294896
0.313269
0.331686
0.350066
0.368333
0.386415
0.404242
0.421755
0.438896
0.455617
0.471875
0.487636
0.502869
0.517553
0.531671
0.545211
0.558168
0.57054
0.58233
0.593544
0.604191
0.614284
0.623837
0.632867
0.641389
0.649424
0.65699
0.664107
0.670795
0.677074
0.682965
0.688487
0.693661
0.698373
0.702789
0.70705
0.711039
0.714777
0.718286
0.72159
0.724709
0.727658
0.730446
0.733078
0.73556
0.737894
0.740085
0.742133
0.744043
0.745816
0.747457
0.748967
0.750352
0.751612
0.752754
0.753782
0.754702
0.755521
0.756244
0.756878
0.75743
0.757908
0.758319
0.758669
0.758966
0.759215
0.759424
0.759597
0.759741
0.75986
0.75996
0.0010116
0.00329583
0.0058724
0.00877507
0.0120399
0.0157052
0.0198109
0.0243983
0.0295094
0.0351864
0.0414707
0.0484018
0.056017
0.0643492
0.0734271
0.083273
0.0939023
0.105323
0.117533
0.130523
0.144272
0.158751
0.173921
0.189733
0.206131
0.223051
0.240421
0.258165
0.276204
0.294456
0.312837
0.331265
0.349661
0.367946
0.386048
0.403899
0.421437
0.438605
0.455354
0.471642
0.487432
0.502696
0.517409
0.531555
0.545123
0.558107
0.570504
0.582318
0.593555
0.604223
0.614336
0.623906
0.632951
0.641488
0.649534
0.657111
0.664236
0.670931
0.677216
0.683112
0.688637
0.693812
0.698523
0.702939
0.707199
0.711188
0.714924
0.718431
0.721733
0.72485
0.727796
0.73058
0.733209
0.735686
0.738016
0.740201
0.742243
0.744147
0.745913
0.747547
0.749051
0.750428
0.751682
0.752817
0.753838
0.754751
0.755563
0.756281
0.756909
0.757457
0.757931
0.758337
0.758684
0.758977
0.759224
0.75943
0.759602
0.759744
0.759862
0.75996
0.00100877
0.00328664
0.00585607
0.00875075
0.0120067
0.0156621
0.0197569
0.0243322
0.0294302
0.035093
0.0413619
0.0482766
0.0558743
0.0641884
0.0732474
0.0830739
0.0936837
0.105085
0.117276
0.130248
0.143979
0.158442
0.173597
0.189397
0.205785
0.222697
0.240062
0.257804
0.275845
0.2941
0.312489
0.330927
0.349335
0.367636
0.385755
0.403625
0.421184
0.438374
0.455146
0.471458
0.487272
0.502559
0.517297
0.531466
0.545057
0.558063
0.570481
0.582315
0.593569
0.604255
0.614383
0.623968
0.633025
0.641573
0.649629
0.657214
0.664346
0.671047
0.677336
0.683235
0.688762
0.693939
0.69865
0.703064
0.707324
0.711311
0.715046
0.718551
0.721851
0.724965
0.727909
0.730691
0.733317
0.73579
0.738116
0.740296
0.742334
0.744232
0.745993
0.747621
0.74912
0.750491
0.751739
0.752868
0.753883
0.754791
0.755598
0.756311
0.756935
0.757479
0.757949
0.758352
0.758696
0.758986
0.759231
0.759435
0.759605
0.759746
0.759863
0.759961
0.00100656
0.00327944
0.00584328
0.00873171
0.0119807
0.0156284
0.0197146
0.0242805
0.0293683
0.0350199
0.0412767
0.0481786
0.0557628
0.0640626
0.0731067
0.082918
0.0935123
0.104898
0.117074
0.130031
0.143749
0.158199
0.173343
0.189134
0.205514
0.222421
0.239782
0.257524
0.275565
0.293824
0.312218
0.330665
0.349083
0.367396
0.385529
0.403414
0.420989
0.438197
0.454987
0.471317
0.48715
0.502457
0.517213
0.531401
0.54501
0.558033
0.570467
0.582316
0.593585
0.604284
0.614424
0.624019
0.633086
0.641643
0.649706
0.657297
0.664435
0.67114
0.677433
0.683333
0.688863
0.69404
0.698751
0.703165
0.707424
0.71141
0.715143
0.718647
0.721944
0.725058
0.728
0.730779
0.733402
0.735873
0.738195
0.740371
0.742405
0.744299
0.746056
0.74768
0.749174
0.75054
0.751783
0.752908
0.753919
0.754823
0.755626
0.756334
0.756955
0.757496
0.757963
0.758364
0.758705
0.758994
0.759237
0.75944
0.759608
0.759748
0.759864
0.759961
0.00100492
0.00327414
0.00583385
0.00871767
0.0119615
0.0156035
0.0196834
0.0242424
0.0293226
0.034966
0.041214
0.0481065
0.0556806
0.0639699
0.0730031
0.0828032
0.0933862
0.10476
0.116925
0.129871
0.14358
0.158021
0.173157
0.188941
0.205316
0.222218
0.239577
0.257318
0.27536
0.293622
0.31202
0.330473
0.348899
0.36722
0.385364
0.40326
0.420847
0.438068
0.454872
0.471216
0.487063
0.502384
0.517154
0.531356
0.544978
0.558013
0.570459
0.582319
0.593599
0.604307
0.614456
0.62406
0.633134
0.641696
0.649765
0.657361
0.664502
0.67121
0.677505
0.683408
0.688938
0.694116
0.698827
0.70324
0.707498
0.711483
0.715215
0.718718
0.722014
0.725126
0.728067
0.730844
0.733465
0.735934
0.738253
0.740427
0.742458
0.744349
0.746103
0.747723
0.749214
0.750577
0.751816
0.752937
0.753945
0.754846
0.755646
0.756352
0.75697
0.757508
0.757973
0.758372
0.758712
0.758999
0.759241
0.759443
0.759611
0.75975
0.759865
0.759961
0.00100385
0.00327065
0.00582765
0.00870844
0.0119489
0.0155871
0.0196629
0.0242174
0.0292926
0.0349306
0.0411728
0.048059
0.0556266
0.063909
0.072935
0.0827278
0.0933035
0.10467
0.116828
0.129767
0.143469
0.157904
0.173035
0.188814
0.205185
0.222085
0.239443
0.257183
0.275226
0.293489
0.311891
0.330347
0.348778
0.367106
0.385256
0.40316
0.420755
0.437985
0.454798
0.471151
0.487007
0.502337
0.517116
0.531327
0.544957
0.558001
0.570455
0.582323
0.593609
0.604324
0.614479
0.624087
0.633166
0.641733
0.649805
0.657404
0.664548
0.671258
0.677554
0.683458
0.688989
0.694166
0.698877
0.70329
0.707547
0.711532
0.715263
0.718765
0.722061
0.725172
0.728111
0.730888
0.733507
0.735974
0.738292
0.740464
0.742493
0.744382
0.746134
0.747752
0.74924
0.750601
0.751838
0.752957
0.753963
0.754862
0.75566
0.756364
0.75698
0.757517
0.75798
0.758378
0.758716
0.759003
0.759244
0.759445
0.759612
0.759751
0.759865
0.759961
0.00100332
0.00326892
0.00582458
0.00870387
0.0119427
0.015579
0.0196528
0.024205
0.0292778
0.0349131
0.0411525
0.0480357
0.0556
0.063879
0.0729016
0.0826908
0.0932628
0.104626
0.11678
0.129716
0.143414
0.157847
0.172975
0.188752
0.205121
0.22202
0.239377
0.257117
0.27516
0.293425
0.311827
0.330286
0.348719
0.36705
0.385203
0.403111
0.42071
0.437944
0.454761
0.471119
0.48698
0.502314
0.517098
0.531313
0.544948
0.557996
0.570454
0.582325
0.593615
0.604333
0.61449
0.624101
0.633182
0.641751
0.649825
0.657425
0.66457
0.671281
0.677579
0.683483
0.689014
0.694191
0.698901
0.703314
0.707572
0.711556
0.715287
0.718788
0.722084
0.725194
0.728133
0.730909
0.733528
0.735994
0.738311
0.740483
0.742511
0.744398
0.746149
0.747766
0.749253
0.750613
0.751849
0.752967
0.753971
0.754869
0.755666
0.756369
0.756985
0.757521
0.757984
0.758381
0.758719
0.759005
0.759245
0.759446
0.759613
0.759751
0.759866
0.759961
0.00100332
0.00326892
0.00582459
0.00870387
0.0119427
0.0155791
0.0196528
0.024205
0.0292778
0.0349131
0.0411525
0.0480357
0.0556
0.063879
0.0729016
0.0826908
0.0932628
0.104626
0.11678
0.129716
0.143414
0.157847
0.172975
0.188752
0.205121
0.22202
0.239377
0.257117
0.27516
0.293425
0.311827
0.330286
0.348719
0.36705
0.385203
0.403111
0.42071
0.437944
0.454761
0.471119
0.48698
0.502314
0.517098
0.531313
0.544948
0.557996
0.570454
0.582325
0.593615
0.604333
0.61449
0.624101
0.633182
0.641751
0.649825
0.657425
0.66457
0.671281
0.677579
0.683483
0.689014
0.694191
0.698901
0.703314
0.707572
0.711556
0.715287
0.718788
0.722084
0.725194
0.728133
0.730909
0.733528
0.735994
0.738311
0.740483
0.742511
0.744398
0.746149
0.747766
0.749253
0.750613
0.751849
0.752967
0.753971
0.754869
0.755666
0.756369
0.756985
0.757521
0.757984
0.758381
0.758719
0.759005
0.759245
0.759446
0.759613
0.759751
0.759866
0.759961
0.00100385
0.00327065
0.00582765
0.00870844
0.0119489
0.0155871
0.0196629
0.0242174
0.0292926
0.0349306
0.0411728
0.0480591
0.0556266
0.063909
0.0729351
0.0827279
0.0933035
0.10467
0.116828
0.129767
0.143469
0.157904
0.173035
0.188814
0.205185
0.222085
0.239443
0.257183
0.275226
0.293489
0.311891
0.330347
0.348778
0.367106
0.385256
0.40316
0.420755
0.437985
0.454798
0.471151
0.487007
0.502337
0.517116
0.531327
0.544957
0.558001
0.570455
0.582323
0.593609
0.604324
0.614479
0.624087
0.633166
0.641733
0.649805
0.657404
0.664548
0.671258
0.677554
0.683458
0.688989
0.694166
0.698877
0.703289
0.707547
0.711532
0.715263
0.718765
0.722061
0.725172
0.728111
0.730888
0.733507
0.735974
0.738292
0.740464
0.742493
0.744382
0.746134
0.747752
0.74924
0.750601
0.751838
0.752957
0.753963
0.754862
0.75566
0.756364
0.75698
0.757517
0.75798
0.758378
0.758716
0.759003
0.759244
0.759445
0.759612
0.759751
0.759865
0.759961
0.00100493
0.00327414
0.00583386
0.00871768
0.0119615
0.0156035
0.0196834
0.0242425
0.0293226
0.034966
0.041214
0.0481065
0.0556806
0.0639699
0.0730031
0.0828033
0.0933863
0.10476
0.116925
0.129872
0.14358
0.158021
0.173157
0.188941
0.205316
0.222218
0.239577
0.257318
0.27536
0.293622
0.31202
0.330473
0.348899
0.36722
0.385364
0.403261
0.420848
0.438068
0.454872
0.471216
0.487063
0.502384
0.517154
0.531356
0.544978
0.558013
0.570459
0.582319
0.593599
0.604307
0.614456
0.62406
0.633134
0.641696
0.649765
0.657361
0.664502
0.67121
0.677505
0.683408
0.688938
0.694116
0.698827
0.70324
0.707498
0.711483
0.715215
0.718718
0.722014
0.725126
0.728067
0.730844
0.733465
0.735934
0.738253
0.740427
0.742458
0.744349
0.746103
0.747723
0.749214
0.750577
0.751816
0.752937
0.753945
0.754846
0.755646
0.756352
0.75697
0.757508
0.757973
0.758372
0.758712
0.758999
0.759241
0.759443
0.759611
0.75975
0.759865
0.759961
0.00100656
0.00327945
0.00584329
0.00873172
0.0119807
0.0156284
0.0197146
0.0242806
0.0293683
0.0350199
0.0412768
0.0481787
0.0557628
0.0640626
0.0731068
0.0829181
0.0935124
0.104898
0.117074
0.130031
0.143749
0.158199
0.173344
0.189134
0.205514
0.222421
0.239783
0.257524
0.275565
0.293824
0.312218
0.330665
0.349083
0.367396
0.385529
0.403414
0.420989
0.438197
0.454987
0.471317
0.487151
0.502457
0.517213
0.531401
0.54501
0.558033
0.570467
0.582316
0.593585
0.604284
0.614424
0.624019
0.633087
0.641643
0.649706
0.657297
0.664435
0.67114
0.677433
0.683333
0.688862
0.69404
0.698751
0.703165
0.707424
0.711409
0.715143
0.718646
0.721944
0.725057
0.727999
0.730779
0.733402
0.735872
0.738195
0.740371
0.742405
0.744299
0.746056
0.74768
0.749174
0.75054
0.751783
0.752908
0.753919
0.754823
0.755626
0.756334
0.756955
0.757496
0.757963
0.758363
0.758705
0.758994
0.759237
0.75944
0.759608
0.759748
0.759864
0.759961
0.00100877
0.00328665
0.00585608
0.00875077
0.0120067
0.0156621
0.0197569
0.0243323
0.0294303
0.035093
0.0413619
0.0482767
0.0558744
0.0641885
0.0732474
0.083074
0.0936838
0.105085
0.117276
0.130249
0.143979
0.158442
0.173597
0.189397
0.205785
0.222697
0.240062
0.257805
0.275845
0.2941
0.312489
0.330927
0.349336
0.367636
0.385755
0.403626
0.421184
0.438374
0.455146
0.471458
0.487272
0.502559
0.517297
0.531467
0.545057
0.558063
0.570481
0.582315
0.59357
0.604255
0.614383
0.623968
0.633025
0.641573
0.649629
0.657214
0.664346
0.671047
0.677336
0.683235
0.688762
0.693939
0.69865
0.703064
0.707324
0.711311
0.715046
0.718551
0.72185
0.724965
0.727909
0.730691
0.733316
0.73579
0.738116
0.740296
0.742334
0.744232
0.745993
0.747621
0.74912
0.750491
0.751738
0.752867
0.753883
0.754791
0.755598
0.756311
0.756935
0.757479
0.757949
0.758352
0.758696
0.758986
0.759231
0.759435
0.759605
0.759746
0.759863
0.759961
0.0010116
0.00329584
0.00587241
0.00877509
0.01204
0.0157053
0.0198109
0.0243983
0.0295095
0.0351865
0.0414707
0.0484019
0.056017
0.0643493
0.0734272
0.0832731
0.0939024
0.105323
0.117533
0.130523
0.144272
0.158751
0.173921
0.189734
0.206132
0.223051
0.240421
0.258165
0.276204
0.294456
0.312837
0.331265
0.349661
0.367946
0.386049
0.4039
0.421437
0.438605
0.455354
0.471642
0.487432
0.502696
0.517409
0.531555
0.545123
0.558107
0.570504
0.582318
0.593555
0.604223
0.614336
0.623906
0.632951
0.641488
0.649534
0.657111
0.664236
0.670931
0.677216
0.683111
0.688637
0.693812
0.698523
0.702939
0.707199
0.711188
0.714924
0.718431
0.721732
0.724849
0.727796
0.73058
0.733209
0.735686
0.738016
0.7402
0.742243
0.744146
0.745913
0.747547
0.749051
0.750428
0.751682
0.752816
0.753838
0.754751
0.755563
0.756281
0.756909
0.757457
0.757931
0.758337
0.758684
0.758977
0.759224
0.75943
0.759602
0.759744
0.759862
0.75996
0.00101508
0.00330715
0.00589252
0.00880503
0.0120809
0.0157583
0.0198775
0.0244797
0.029607
0.0353016
0.0416048
0.0485563
0.0561929
0.0645477
0.0736489
0.0835188
0.0941724
0.105617
0.117851
0.130863
0.144635
0.159135
0.174322
0.19015
0.206561
0.22349
0.240865
0.258612
0.27665
0.294897
0.313269
0.331686
0.350066
0.368334
0.386415
0.404243
0.421755
0.438896
0.455617
0.471875
0.487636
0.502869
0.517553
0.531671
0.545211
0.558168
0.57054
0.58233
0.593544
0.604191
0.614284
0.623837
0.632867
0.641389
0.649424
0.65699
0.664107
0.670795
0.677074
0.682965
0.688487
0.693661
0.698373
0.702789
0.70705
0.711039
0.714777
0.718286
0.72159
0.724709
0.727658
0.730446
0.733078
0.73556
0.737894
0.740084
0.742133
0.744042
0.745816
0.747457
0.748967
0.750352
0.751612
0.752754
0.753782
0.754702
0.755521
0.756244
0.756878
0.75743
0.757908
0.758319
0.758669
0.758966
0.759215
0.759424
0.759597
0.759741
0.75986
0.75996
0.00101925
0.00332073
0.00591665
0.00884097
0.01213
0.0158221
0.0199574
0.0245774
0.0297242
0.03544
0.041766
0.0487419
0.0564043
0.0647863
0.0739158
0.0838147
0.0944978
0.105972
0.118236
0.131278
0.145078
0.159599
0.174807
0.190653
0.207079
0.224019
0.241402
0.259152
0.277189
0.295431
0.313794
0.332196
0.350559
0.368805
0.386862
0.404662
0.422144
0.439253
0.455941
0.472165
0.487891
0.503089
0.517738
0.531822
0.545328
0.558253
0.570594
0.582354
0.593541
0.604163
0.614232
0.623764
0.632774
0.64128
0.6493
0.656853
0.663958
0.670637
0.67691
0.682795
0.688313
0.693484
0.698195
0.702612
0.706874
0.710864
0.714605
0.718116
0.721422
0.724544
0.727496
0.730287
0.732924
0.735411
0.737751
0.739947
0.742002
0.743919
0.7457
0.747349
0.748868
0.750261
0.75153
0.75268
0.753716
0.754644
0.75547
0.756199
0.75684
0.757399
0.757882
0.758297
0.758652
0.758952
0.759205
0.759416
0.759592
0.759737
0.759858
0.759959
0.00102418
0.00333674
0.00594511
0.00888336
0.0121879
0.0158973
0.0200518
0.0246928
0.0298626
0.0356034
0.0419564
0.0489611
0.0566541
0.0650682
0.074231
0.084164
0.0948816
0.10639
0.118687
0.13176
0.145588
0.160142
0.175378
0.191247
0.207692
0.224646
0.242039
0.259794
0.27783
0.296065
0.314418
0.332805
0.351147
0.369369
0.387397
0.405165
0.422613
0.439685
0.456334
0.472518
0.488203
0.503361
0.51797
0.532014
0.54548
0.558366
0.57067
0.582396
0.59355
0.604142
0.614184
0.62369
0.632677
0.641162
0.649164
0.656701
0.663794
0.670461
0.676724
0.682602
0.688116
0.693284
0.697994
0.702411
0.706673
0.710665
0.714407
0.717921
0.721229
0.724354
0.727309
0.730104
0.732746
0.735238
0.737584
0.739788
0.741851
0.743776
0.745566
0.747224
0.748752
0.750155
0.751433
0.752593
0.753639
0.754576
0.75541
0.756148
0.756796
0.757362
0.757851
0.758272
0.758631
0.758936
0.759192
0.759407
0.759585
0.759733
0.759856
0.759959
0.0010299
0.00335535
0.0059782
0.00893267
0.0122553
0.0159848
0.0201615
0.0248271
0.0300237
0.0357937
0.0421781
0.0492165
0.0569452
0.0653966
0.0745983
0.0845712
0.0953293
0.106878
0.119215
0.132328
0.146195
0.160788
0.17605
0.191943
0.208409
0.225379
0.242783
0.260543
0.278579
0.296809
0.315149
0.333519
0.351839
0.370032
0.388029
0.405761
0.423169
0.440199
0.456804
0.472942
0.48858
0.50369
0.518251
0.532247
0.545669
0.558512
0.570775
0.582461
0.593577
0.604134
0.614143
0.62362
0.632579
0.64104
0.64902
0.656538
0.663614
0.670268
0.67652
0.682389
0.687895
0.693058
0.697773
0.702189
0.706449
0.710442
0.714185
0.717701
0.721011
0.724139
0.727097
0.729897
0.732543
0.735041
0.737395
0.739606
0.741678
0.743612
0.745412
0.74708
0.748619
0.750033
0.751323
0.752493
0.753549
0.754497
0.755341
0.756088
0.756745
0.757319
0.757815
0.758243
0.758608
0.758917
0.759178
0.759396
0.759578
0.759728
0.759853
0.759958
0.00103648
0.00337675
0.00601624
0.00898936
0.0123328
0.0160855
0.0202879
0.0249817
0.0302092
0.0360128
0.0424335
0.0495105
0.0572803
0.0657749
0.0750212
0.0850399
0.0958444
0.10744
0.119822
0.132978
0.146885
0.161509
0.176813
0.192741
0.209233
0.226224
0.243641
0.261409
0.279445
0.297668
0.315996
0.334347
0.352641
0.370804
0.388764
0.406456
0.42382
0.440803
0.457357
0.473444
0.489029
0.504086
0.518593
0.532538
0.54591
0.558701
0.570915
0.582555
0.593627
0.604143
0.614115
0.623557
0.632485
0.640917
0.648872
0.656368
0.663424
0.670061
0.676299
0.682156
0.687653
0.692808
0.697534
0.701946
0.706205
0.710196
0.71394
0.717457
0.72077
0.723899
0.726861
0.729665
0.732317
0.734822
0.737182
0.739402
0.741483
0.743428
0.745239
0.746918
0.748469
0.749895
0.751197
0.75238
0.753448
0.754407
0.755263
0.756021
0.756687
0.75727
0.757775
0.75821
0.758581
0.758896
0.759162
0.759384
0.759569
0.759723
0.75985
0.759957
0.00104396
0.00340108
0.00605951
0.00905387
0.0124211
0.0162002
0.0204318
0.0251578
0.0304206
0.0362625
0.0427245
0.0498457
0.0576623
0.0662059
0.0755031
0.085574
0.0964313
0.108079
0.120514
0.133721
0.147677
0.162349
0.177702
0.193657
0.210175
0.227187
0.244619
0.262395
0.280432
0.298649
0.316963
0.335293
0.35356
0.371689
0.38961
0.407257
0.424572
0.441502
0.458001
0.47403
0.489555
0.504552
0.519
0.532885
0.546197
0.558934
0.571094
0.582682
0.593706
0.604176
0.614105
0.623508
0.6324
0.640799
0.648724
0.656194
0.663228
0.669845
0.676066
0.681909
0.687394
0.69254
0.697275
0.701685
0.70594
0.709931
0.713674
0.717192
0.720506
0.723638
0.726603
0.72941
0.732068
0.734579
0.736948
0.739177
0.741268
0.743224
0.745046
0.746738
0.748302
0.749741
0.751057
0.752254
0.753335
0.754307
0.755175
0.755945
0.756622
0.757215
0.757729
0.758172
0.758551
0.758873
0.759144
0.759371
0.75956
0.759717
0.759847
0.759956
0.00105238
0.00342846