/*--------------------------------*- C++ -*----------------------------------*\
| =========                 |                                                 |
| \\      /  F ield         | OpenFOAM: The Open Source CFD Toolbox           |
|  \\    /   O peration     | Version:  2.3.x                                 |
|   \\  /    A nd           | Web:      www.OpenFOAM.org                      |
|    \\/     M anipulation  |                                                 |
\*---------------------------------------------------------------------------*/
FoamFile
{
    version     2.0;
    format      ascii;
    class       volScalarField;
    location    "0.5";
    object      O2;
}
// * * * * * * * * * * * * * * * * * * * * * * * * * * * * * * * * * * * * * //

dimensions      [0 0 0 0 0 0 0];

internalField   nonuniform List<scalar> 
4000
(
3.75816e-09
1.22431e-08
2.18117e-08
3.2585e-08
4.46894e-08
5.82563e-08
7.34198e-08
9.03154e-08
1.09077e-07
1.29833e-07
1.52706e-07
1.77805e-07
2.05225e-07
2.35043e-07
2.6731e-07
3.02055e-07
3.39274e-07
3.78937e-07
4.2098e-07
4.65307e-07
5.11794e-07
5.60291e-07
6.10629e-07
6.62624e-07
7.1609e-07
7.7085e-07
8.26756e-07
8.83701e-07
9.41649e-07
1.00066e-06
1.06093e-06
1.12282e-06
1.18692e-06
1.25408e-06
1.32553e-06
1.40291e-06
1.48843e-06
1.58502e-06
1.69654e-06
1.82812e-06
1.98657e-06
2.1811e-06
2.42438e-06
2.73413e-06
3.13565e-06
3.66592e-06
4.38016e-06
5.36258e-06
6.74407e-06
8.73162e-06
1.16556e-05
1.60457e-05
2.27498e-05
3.31138e-05
4.92538e-05
7.44646e-05
0.000113832
0.000175159
0.00027036
0.000417564
0.000644256
0.000991993
0.00152207
0.0023121
0.00350938
0.00536312
0.00816493
0.0124102
0.0188638
0.028701
0.0405169
0.0533087
0.0664463
0.0795316
0.092314
0.104637
0.116405
0.127562
0.138075
0.14793
0.157123
0.165656
0.173536
0.180768
0.187367
0.193353
0.198748
0.203578
0.207873
0.211662
0.21498
0.217862
0.220346
0.222469
0.224268
0.225782
0.227047
0.228098
0.228972
0.229703
3.73888e-09
1.21805e-08
2.17009e-08
3.24213e-08
4.44685e-08
5.79741e-08
7.30725e-08
8.98997e-08
1.0859e-07
1.29274e-07
1.52075e-07
1.77103e-07
2.04456e-07
2.34212e-07
2.66427e-07
3.0113e-07
3.38322e-07
3.77976e-07
4.20029e-07
4.6439e-07
5.10939e-07
5.59528e-07
6.0999e-07
6.62144e-07
7.15804e-07
7.70797e-07
8.26971e-07
8.84221e-07
9.42511e-07
1.0019e-06
1.06258e-06
1.12492e-06
1.1895e-06
1.25718e-06
1.32918e-06
1.40716e-06
1.49335e-06
1.59068e-06
1.70306e-06
1.83565e-06
1.99533e-06
2.19143e-06
2.43674e-06
2.7492e-06
3.15448e-06
3.6901e-06
4.41217e-06
5.40639e-06
6.80473e-06
8.81904e-06
1.17856e-05
1.62443e-05
2.3059e-05
3.36021e-05
5.00163e-05
7.56682e-05
0.000115732
0.00017815
0.000275046
0.000424873
0.000655612
0.00100959
0.00154904
0.00235361
0.00357371
0.00545999
0.00831174
0.0126306
0.0191937
0.0291486
0.0410362
0.0538706
0.0670316
0.0801275
0.0929113
0.105229
0.116987
0.128129
0.138625
0.148459
0.157628
0.166135
0.173987
0.181188
0.187755
0.193707
0.199068
0.203864
0.208124
0.211881
0.215167
0.218019
0.220474
0.222572
0.224348
0.225842
0.227089
0.228125
0.228987
0.229708
3.71382e-09
1.20985e-08
2.15542e-08
3.22019e-08
4.41687e-08
5.75866e-08
7.25912e-08
8.93195e-08
1.07907e-07
1.28487e-07
1.51183e-07
1.76109e-07
2.03366e-07
2.33035e-07
2.65175e-07
2.9982e-07
3.36976e-07
3.76619e-07
4.18692e-07
4.6311e-07
5.09756e-07
5.58487e-07
6.0914e-07
6.61539e-07
7.155e-07
7.70855e-07
8.27451e-07
8.85184e-07
9.44018e-07
1.00401e-06
1.06536e-06
1.12843e-06
1.19379e-06
1.26233e-06
1.33525e-06
1.41425e-06
1.50156e-06
1.60016e-06
1.71402e-06
1.84836e-06
2.01019e-06
2.20899e-06
2.45783e-06
2.77501e-06
3.18675e-06
3.73146e-06
4.46657e-06
5.47987e-06
6.90987e-06
8.97237e-06
1.20148e-05
1.65945e-05
2.36038e-05
3.44589e-05
5.13825e-05
7.78393e-05
0.000119168
0.000183556
0.000283496
0.000437978
0.000675767
0.0010403
0.00159475
0.00242101
0.00370327
0.00564601
0.00858711
0.0130436
0.0198167
0.0299571
0.0419579
0.0548584
0.0680541
0.0811629
0.093944
0.106247
0.117982
0.129094
0.139553
0.149346
0.15847
0.166927
0.174726
0.181872
0.188381
0.194274
0.199576
0.204314
0.208517
0.212219
0.215453
0.218257
0.220668
0.222725
0.224466
0.225929
0.22715
0.228164
0.229009
0.229714
3.68652e-09
1.20095e-08
2.13954e-08
3.19646e-08
4.38443e-08
5.7167e-08
7.20691e-08
8.86886e-08
1.07163e-07
1.27627e-07
1.50207e-07
1.75021e-07
2.02171e-07
2.31743e-07
2.63801e-07
2.98384e-07
3.35503e-07
3.75138e-07
4.17241e-07
4.6173e-07
5.08495e-07
5.574e-07
6.08286e-07
6.60981e-07
7.1531e-07
7.71098e-07
8.28203e-07
8.86522e-07
9.46019e-07
1.00676e-06
1.06893e-06
1.13289e-06
1.19924e-06
1.26885e-06
1.34295e-06
1.42324e-06
1.51199e-06
1.61225e-06
1.72802e-06
1.86465e-06
2.02932e-06
2.23172e-06
2.48528e-06
2.80884e-06
3.22945e-06
3.78683e-06
4.54061e-06
5.58097e-06
7.05164e-06
9.17856e-06
1.23238e-05
1.70694e-05
2.43471e-05
3.56227e-05
5.32473e-05
8.08153e-05
0.000123899
0.000191041
0.000295277
0.000456423
0.000704498
0.00108485
0.00166264
0.00252487
0.00386419
0.00589101
0.00895877
0.0136078
0.020676
0.0310269
0.0431575
0.0561336
0.0693674
0.0824874
0.0952601
0.10754
0.11924
0.130309
0.140717
0.150453
0.159514
0.167905
0.175633
0.182705
0.189139
0.194958
0.200185
0.20485
0.208982
0.212617
0.215788
0.218534
0.220893
0.222903
0.224603
0.22603
0.227221
0.22821
0.229033
0.229721
3.66e-09
1.19232e-08
2.12416e-08
3.17352e-08
4.35309e-08
5.67616e-08
7.15641e-08
8.80777e-08
1.06442e-07
1.26792e-07
1.49258e-07
1.7396e-07
2.01006e-07
2.30483e-07
2.62462e-07
2.96985e-07
3.3407e-07
3.73704e-07
4.15843e-07
4.60413e-07
5.0731e-07
5.56404e-07
6.07542e-07
6.60559e-07
7.15283e-07
7.71547e-07
8.29209e-07
8.8817e-07
9.48396e-07
1.00995e-06
1.07303e-06
1.13799e-06
1.20544e-06
1.27625e-06
1.35168e-06
1.43344e-06
1.52384e-06
1.62598e-06
1.74396e-06
1.88325e-06
2.05119e-06
2.25777e-06
2.51678e-06
2.84769e-06
3.27846e-06
3.85027e-06
4.62505e-06
5.69763e-06
7.21737e-06
9.42105e-06
1.26886e-05
1.76312e-05
2.52259e-05
3.70284e-05
5.54795e-05
8.43706e-05
0.000129549
0.000199981
0.000309346
0.000478436
0.000738751
0.00113786
0.00174291
0.00264699
0.00405155
0.00617662
0.009393
0.0142682
0.021684
0.0322558
0.0445224
0.0575767
0.0708479
0.0839759
0.0967349
0.108985
0.120642
0.131657
0.142004
0.151671
0.160659
0.168972
0.176618
0.183606
0.189956
0.195689
0.200833
0.205417
0.209473
0.213035
0.216139
0.218823
0.221126
0.223087
0.224744
0.226135
0.227295
0.228258
0.229059
0.229729
3.63552e-09
1.18436e-08
2.11e-08
3.15242e-08
4.32431e-08
5.63895e-08
7.11007e-08
8.75171e-08
1.05779e-07
1.26024e-07
1.48385e-07
1.72985e-07
1.99933e-07
2.29324e-07
2.6123e-07
2.95701e-07
3.32759e-07
3.72398e-07
4.1458e-07
4.59238e-07
5.06274e-07
5.55566e-07
6.06967e-07
6.60318e-07
7.15449e-07
7.72202e-07
8.30439e-07
8.90063e-07
9.51043e-07
1.01345e-06
1.07747e-06
1.14348e-06
1.21207e-06
1.28415e-06
1.36098e-06
1.4443e-06
1.53647e-06
1.64063e-06
1.76098e-06
1.90313e-06
2.07461e-06
2.2857e-06
2.55065e-06
2.88954e-06
3.3314e-06
3.91899e-06
4.71602e-06
5.82409e-06
7.39773e-06
9.68566e-06
1.30875e-05
1.82465e-05
2.61864e-05
3.85614e-05
5.79253e-05
8.82675e-05
0.000135737
0.000209756
0.000324701
0.000502412
0.000775966
0.0011953
0.00182932
0.00277814
0.00425221
0.00648181
0.00985594
0.0149707
0.0227531
0.0335537
0.0459593
0.0590917
0.0723983
0.0855311
0.0982721
0.110487
0.122095
0.133051
0.14333
0.152924
0.161832
0.170062
0.17762
0.184519
0.190779
0.196424
0.201483
0.205984
0.209961
0.213449
0.216485
0.219108
0.221356
0.223269
0.224884
0.226238
0.227367
0.228305
0.229085
0.229736
3.61365e-09
1.17725e-08
2.09737e-08
3.13364e-08
4.2987e-08
5.60587e-08
7.06891e-08
8.70192e-08
1.05191e-07
1.25343e-07
1.4761e-07
1.72119e-07
1.98981e-07
2.28296e-07
2.6014e-07
2.94568e-07
3.31607e-07
3.71258e-07
4.13489e-07
4.58239e-07
5.05419e-07
5.54909e-07
6.06573e-07
6.60256e-07
7.15794e-07
7.73035e-07
8.31845e-07
8.92129e-07
9.53863e-07
1.01711e-06
1.08208e-06
1.14914e-06
1.21889e-06
1.29225e-06
1.3705e-06
1.4554e-06
1.54936e-06
1.65559e-06
1.77838e-06
1.92346e-06
2.09859e-06
2.31435e-06
2.58542e-06
2.93262e-06
3.38604e-06
3.99017e-06
4.812e-06
5.95582e-06
7.58497e-06
9.9603e-06
1.35016e-05
1.88828e-05
2.71985e-05
4.01615e-05
6.04704e-05
9.23155e-05
0.000142153
0.000219875
0.000340564
0.000527131
0.000814253
0.00125427
0.00191752
0.00291163
0.00445599
0.00679105
0.010324
0.0156795
0.0238298
0.0348583
0.0474008
0.0606084
0.0739473
0.0870815
0.0998013
0.111978
0.123535
0.134429
0.144638
0.154155
0.162982
0.171126
0.178596
0.185406
0.191577
0.197134
0.202108
0.206528
0.210428
0.213845
0.216816
0.21938
0.221575
0.223441
0.225016
0.226336
0.227436
0.22835
0.229109
0.229743
3.59451e-09
1.17103e-08
2.08633e-08
3.11723e-08
4.27637e-08
5.57704e-08
7.03307e-08
8.6586e-08
1.04679e-07
1.24751e-07
1.46937e-07
1.71367e-07
1.98157e-07
2.27407e-07
2.592e-07
2.93595e-07
3.30624e-07
3.70294e-07
4.12579e-07
4.57424e-07
5.04746e-07
5.54434e-07
6.06356e-07
6.60362e-07
7.16297e-07
7.74012e-07
8.33377e-07
8.94303e-07
9.56768e-07
1.02084e-06
1.08673e-06
1.15481e-06
1.2257e-06
1.30031e-06
1.37994e-06
1.4664e-06
1.56213e-06
1.67039e-06
1.79558e-06
1.94357e-06
2.12232e-06
2.34269e-06
2.61985e-06
2.97526e-06
3.44007e-06
4.06002e-06
4.90653e-06
6.08694e-06
7.77238e-06
1.02364e-05
1.39198e-05
1.95307e-05
2.82101e-05
4.17619e-05
6.30144e-05
9.63568e-05
0.000148549
0.000229943
0.000356319
0.000551632
0.000852132
0.00131251
0.00200411
0.00304255
0.00465559
0.00709349
0.0107811
0.0163707
0.0248781
0.0361264
0.0487993
0.0620772
0.0754445
0.0885773
0.101274
0.113411
0.124915
0.135747
0.145886
0.155328
0.164075
0.172136
0.17952
0.186243
0.192328
0.197802
0.202694
0.207037
0.210865
0.214214
0.217124
0.219632
0.221779
0.223602
0.225139
0.226427
0.2275
0.228391
0.229131
0.22975
3.57801e-09
1.16567e-08
2.07683e-08
3.10312e-08
4.25717e-08
5.55229e-08
7.00233e-08
8.62148e-08
1.04241e-07
1.24244e-07
1.46363e-07
1.70727e-07
1.97455e-07
2.26653e-07
2.58406e-07
2.92777e-07
3.29804e-07
3.69498e-07
4.1184e-07
4.56782e-07
5.04244e-07
5.54123e-07
6.06293e-07
6.60609e-07
7.16923e-07
7.7509e-07
8.34984e-07
8.96521e-07
9.59681e-07
1.02454e-06
1.0913e-06
1.16036e-06
1.23232e-06
1.30813e-06
1.38909e-06
1.47704e-06
1.57446e-06
1.68468e-06
1.81218e-06
1.96297e-06
2.1452e-06
2.37005e-06
2.65312e-06
3.01656e-06
3.49262e-06
4.12888e-06
4.99835e-06
6.21375e-06
7.95328e-06
1.05024e-05
1.432e-05
2.01549e-05
2.91926e-05
4.33196e-05
6.54899e-05
0.000100284
0.000154754
0.00023969
0.000371531
0.000575221
0.000888473
0.00136814
0.00208601
0.0031673
0.00484598
0.00738174
0.0112163
0.017028
0.0258735
0.0373285
0.0501229
0.0634648
0.0768565
0.0899854
0.102657
0.114755
0.126208
0.136979
0.147051
0.15642
0.16509
0.173073
0.180375
0.187016
0.193021
0.198416
0.203233
0.207504
0.211265
0.214552
0.217406
0.219863
0.221964
0.223748
0.225251
0.22651
0.227559
0.228429
0.229152
0.229756
3.56396e-09
1.16111e-08
2.06874e-08
3.09112e-08
4.24086e-08
5.53128e-08
6.97625e-08
8.59003e-08
1.0387e-07
1.23816e-07
1.45878e-07
1.70187e-07
1.96866e-07
2.26023e-07
2.57745e-07
2.92101e-07
3.29133e-07
3.68857e-07
4.11259e-07
4.56295e-07
5.03893e-07
5.53956e-07
6.0636e-07
6.60969e-07
7.17639e-07
7.76229e-07
8.36619e-07
8.98726e-07
9.62536e-07
1.02813e-06
1.09571e-06
1.16567e-06
1.23865e-06
1.31557e-06
1.39778e-06
1.48712e-06
1.58612e-06
1.69818e-06
1.82785e-06
1.98127e-06
2.16677e-06
2.3958e-06
2.68437e-06
3.05524e-06
3.54144e-06
4.19315e-06
5.08498e-06
6.33401e-06
8.12556e-06
1.07569e-05
1.47069e-05
2.0751e-05
3.01285e-05
4.48025e-05
6.78458e-05
0.000104021
0.000160654
0.000248955
0.00038599
0.000597649
0.000923055
0.00142117
0.00216386
0.00328461
0.0050243
0.00765118
0.0116224
0.0176409
0.0268001
0.0384457
0.0513508
0.06475
0.0781619
0.091285
0.103932
0.115991
0.127395
0.138109
0.148117
0.157418
0.166017
0.173926
0.181153
0.187719
0.193649
0.198972
0.20372
0.207926
0.211626
0.214857
0.217659
0.220071
0.222132
0.22388
0.225353
0.226585
0.227612
0.228463
0.229171
0.229761
3.55212e-09
1.15727e-08
2.06193e-08
3.08102e-08
4.22715e-08
5.51363e-08
6.95437e-08
8.56366e-08
1.0356e-07
1.23459e-07
1.45474e-07
1.69739e-07
1.96379e-07
2.25503e-07
2.57203e-07
2.91551e-07
3.28594e-07
3.68351e-07
4.10812e-07
4.55941e-07
5.03669e-07
5.53904e-07
6.06528e-07
6.61409e-07
7.18409e-07
7.7739e-07
8.38236e-07
9.00869e-07
9.65277e-07
1.03154e-06
1.09987e-06
1.17067e-06
1.24458e-06
1.32253e-06
1.40588e-06
1.4965e-06
1.59697e-06
1.71071e-06
1.84238e-06
1.99824e-06
2.18678e-06
2.41974e-06
2.71351e-06
3.09151e-06
3.58764e-06
4.25306e-06
5.16535e-06
6.44539e-06
8.28492e-06
1.09912e-05
1.50648e-05
2.13065e-05
3.10023e-05
4.61871e-05
7.0044e-05
0.000107503
0.000166147
0.000257567
0.000399412
0.000618436
0.00095506
0.00147018
0.00223525
0.00339252
0.00518834
0.00789882
0.0119954
0.0182035
0.0276484
0.0394665
0.0524708
0.0659201
0.0793486
0.0924646
0.105088
0.117109
0.128467
0.139128
0.149078
0.158316
0.16685
0.174692
0.18185
0.188347
0.19421
0.199468
0.204154
0.208302
0.211947
0.215128
0.217885
0.220256
0.222281
0.223997
0.225443
0.226652
0.227659
0.228494
0.229187
0.229766
3.54224e-09
1.15406e-08
2.05625e-08
3.0726e-08
4.21572e-08
5.49894e-08
6.93618e-08
8.54178e-08
1.03303e-07
1.23163e-07
1.4514e-07
1.6937e-07
1.95979e-07
2.25079e-07
2.56765e-07
2.91111e-07
3.28168e-07
3.6796e-07
4.10481e-07
4.55697e-07
5.03547e-07
5.53941e-07
6.06767e-07
6.61899e-07
7.19199e-07
7.78536e-07
8.39797e-07
9.02908e-07
9.67857e-07
1.03473e-06
1.10374e-06
1.1753e-06
1.25004e-06
1.32892e-06
1.4133e-06
1.50509e-06
1.60688e-06
1.72215e-06
1.85563e-06
2.01368e-06
2.20495e-06
2.4414e-06
2.73974e-06
3.12389e-06
3.62918e-06
4.3075e-06
5.23874e-06
6.5475e-06
8.43164e-06
1.12086e-05
1.53932e-05
2.18148e-05
3.18011e-05
4.74522e-05
7.20506e-05
0.000110678
0.000171146
0.000265393
0.000411584
0.000637247
0.00098395
0.00151429
0.00230041
0.00349054
0.005337
0.00812297
0.0123328
0.018712
0.0284128
0.0403845
0.0534762
0.0669689
0.0804105
0.0935185
0.106119
0.118106
0.129421
0.140034
0.149931
0.159113
0.167588
0.175368
0.182465
0.188901
0.194705
0.199906
0.204537
0.208632
0.212229
0.215367
0.218083
0.220418
0.222411
0.2241
0.225522
0.226711
0.2277
0.228521
0.229202
0.22977
3.53408e-09
1.15142e-08
2.05157e-08
3.06566e-08
4.20631e-08
5.48685e-08
6.92122e-08
8.52382e-08
1.03093e-07
1.22922e-07
1.44869e-07
1.69071e-07
1.95656e-07
2.24739e-07
2.56416e-07
2.90765e-07
3.27839e-07
3.67665e-07
4.10243e-07
4.55542e-07
5.03504e-07
5.54043e-07
6.07052e-07
6.62409e-07
7.1998e-07
7.79636e-07
8.41268e-07
9.04804e-07
9.70237e-07
1.03765e-06
1.10727e-06
1.17951e-06
1.25499e-06
1.3347e-06
1.42e-06
1.51283e-06
1.61579e-06
1.73244e-06
1.86754e-06
2.02757e-06
2.22133e-06
2.46098e-06
2.76359e-06
3.15354e-06
3.66664e-06
4.35633e-06
5.3044e-06
6.63862e-06
8.56203e-06
1.14027e-05
1.56885e-05
2.22728e-05
3.25211e-05
4.85914e-05
7.38552e-05
0.000113529
0.000175628
0.000272395
0.000422453
0.000654007
0.00100964
0.00155342
0.00235898
0.00357819
0.00546956
0.00832252
0.0126329
0.0191641
0.0290903
0.0411966
0.0543643
0.0678938
0.0813457
0.0944455
0.107024
0.118981
0.130258
0.140826
0.150676
0.159808
0.168231
0.175958
0.183001
0.189384
0.195135
0.200286
0.204868
0.208919
0.212474
0.215573
0.218255
0.220559
0.222524
0.224189
0.22559
0.226762
0.227736
0.228544
0.229214
0.229774
3.52742e-09
1.14926e-08
2.04775e-08
3.06001e-08
4.19865e-08
5.47702e-08
6.90908e-08
8.50925e-08
1.02922e-07
1.22726e-07
1.4465e-07
1.68831e-07
1.95398e-07
2.24469e-07
2.56141e-07
2.90496e-07
3.27588e-07
3.67449e-07
4.10079e-07
4.55453e-07
5.03515e-07
5.54185e-07
6.07358e-07
6.62913e-07
7.20723e-07
7.80661e-07
8.42619e-07
9.06529e-07
9.72386e-07
1.04028e-06
1.11043e-06
1.18325e-06
1.25939e-06
1.33982e-06
1.42593e-06
1.51967e-06
1.62366e-06
1.74151e-06
1.87804e-06
2.0398e-06
2.23573e-06
2.47819e-06
2.78452e-06
3.17953e-06
3.6997e-06
4.3996e-06
5.3628e-06
6.72004e-06
8.67916e-06
1.15754e-05
1.59505e-05
2.26792e-05
3.31597e-05
4.96017e-05
7.54548e-05
0.000116054
0.000179594
0.000278585
0.000432053
0.000668799
0.00103229
0.00158792
0.00241062
0.00365523
0.00558583
0.00849687
0.0128942
0.019557
0.0296793
0.0419021
0.0551348
0.0686953
0.0821551
0.0952466
0.107806
0.119735
0.130978
0.141509
0.151317
0.160405
0.168783
0.176464
0.18346
0.189797
0.195503
0.200611
0.205152
0.209164
0.212684
0.21575
0.218402
0.220679
0.222621
0.224265
0.225649
0.226805
0.227767
0.228564
0.229225
0.229777
3.52208e-09
1.14753e-08
2.04468e-08
3.05547e-08
4.19251e-08
5.46915e-08
6.89937e-08
8.49762e-08
1.02786e-07
1.22571e-07
1.44477e-07
1.68641e-07
1.95196e-07
2.24258e-07
2.5593e-07
2.90291e-07
3.27402e-07
3.67294e-07
4.09972e-07
4.55413e-07
5.03564e-07
5.54347e-07
6.07662e-07
6.6339e-07
7.21406e-07
7.81585e-07
8.43824e-07
9.08056e-07
9.74276e-07
1.04258e-06
1.11319e-06
1.18651e-06
1.26321e-06
1.34426e-06
1.43107e-06
1.52558e-06
1.63046e-06
1.74934e-06
1.88709e-06
2.05033e-06
2.24812e-06
2.49295e-06
2.80241e-06
3.20188e-06
3.72825e-06
4.43702e-06
5.41334e-06
6.7905e-06
8.78065e-06
1.17258e-05
1.61795e-05
2.30345e-05
3.37186e-05
5.04859e-05
7.68545e-05
0.000118263
0.000183061
0.000283995
0.000440433
0.000681696
0.001052
0.00161786
0.00245528
0.00372204
0.00568643
0.00864769
0.0131193
0.0198923
0.0301825
0.0425035
0.0557903
0.0693759
0.0828413
0.095925
0.108467
0.120372
0.131586
0.142084
0.151857
0.160908
0.169248
0.176889
0.183845
0.190144
0.195812
0.200883
0.20539
0.209369
0.212859
0.215898
0.218525
0.22078
0.222702
0.224329
0.225697
0.226841
0.227792
0.22858
0.229234
0.229779
3.51789e-09
1.14617e-08
2.04228e-08
3.05192e-08
4.1877e-08
5.46298e-08
6.89177e-08
8.48854e-08
1.0268e-07
1.22451e-07
1.44342e-07
1.68495e-07
1.95041e-07
2.24098e-07
2.5577e-07
2.90139e-07
3.27267e-07
3.67187e-07
4.09907e-07
4.55405e-07
5.03632e-07
5.54511e-07
6.07945e-07
6.63818e-07
7.22006e-07
7.82389e-07
8.44862e-07
9.09362e-07
9.75886e-07
1.04453e-06
1.11552e-06
1.18926e-06
1.26643e-06
1.348e-06
1.43539e-06
1.53055e-06
1.63618e-06
1.75592e-06
1.8947e-06
2.05922e-06
2.25859e-06
2.50548e-06
2.81771e-06
3.22083e-06
3.75237e-06
4.46864e-06
5.45606e-06
6.85006e-06
8.86683e-06
1.1854e-05
1.6375e-05
2.33386e-05
3.41974e-05
5.12445e-05
7.80572e-05
0.000120164
0.00018605
0.000288667
0.000447691
0.000692903
0.00106921
0.00164414
0.00249476
0.00378111
0.00577594
0.00878319
0.0133243
0.0202036
0.0306162
0.0430098
0.0563365
0.06994
0.0834082
0.0964843
0.109011
0.120895
0.132085
0.142556
0.1523
0.161321
0.169629
0.177237
0.184161
0.190427
0.196065
0.201106
0.205584
0.209537
0.213002
0.216018
0.218625
0.220862
0.222768
0.224381
0.225737
0.226871
0.227813
0.228594
0.229242
0.229782
3.5147e-09
1.14514e-08
2.04045e-08
3.04921e-08
4.18404e-08
5.45831e-08
6.88602e-08
8.48166e-08
1.026e-07
1.2236e-07
1.44241e-07
1.68385e-07
1.94925e-07
2.23979e-07
2.55653e-07
2.9003e-07
3.27172e-07
3.67116e-07
4.0987e-07
4.55415e-07
5.03703e-07
5.54661e-07
6.08191e-07
6.64181e-07
7.22508e-07
7.83054e-07
8.45715e-07
9.1043e-07
9.77197e-07
1.04611e-06
1.1174e-06
1.19149e-06
1.26903e-06
1.35102e-06
1.43887e-06
1.53456e-06
1.64079e-06
1.76123e-06
1.90085e-06
2.06639e-06
2.26705e-06
2.51561e-06
2.83005e-06
3.23621e-06
3.77203e-06
4.49449e-06
5.49114e-06
6.89924e-06
8.93767e-06
1.19594e-05
1.65358e-05
2.35892e-05
3.45928e-05
5.18718e-05
7.90532e-05
0.000121741
0.000188534
0.000292557
0.000453748
0.000702277
0.00108364
0.00166624
0.00252807
0.00383128
0.00585239
0.00889899
0.0134999
0.0204711
0.0309726
0.0434187
0.0567738
0.0703894
0.0838586
0.0969277
0.109442
0.12131
0.13248
0.142929
0.15265
0.161646
0.169929
0.177511
0.18441
0.19065
0.196263
0.201281
0.205737
0.209669
0.213115
0.216113
0.218704
0.220926
0.22282
0.224422
0.225769
0.226894
0.22783
0.228604
0.229247
0.229783
3.5124e-09
1.14439e-08
2.03914e-08
3.04727e-08
4.18142e-08
5.45495e-08
6.88189e-08
8.47674e-08
1.02543e-07
1.22295e-07
1.44169e-07
1.68308e-07
1.94843e-07
2.23896e-07
2.55571e-07
2.89955e-07
3.27109e-07
3.67071e-07
4.09852e-07
4.55433e-07
5.03768e-07
5.54784e-07
6.08388e-07
6.64466e-07
7.22897e-07
7.83565e-07
8.46368e-07
9.11244e-07
9.78194e-07
1.04731e-06
1.11884e-06
1.19317e-06
1.271e-06
1.3533e-06
1.4415e-06
1.53758e-06
1.64427e-06
1.76524e-06
1.9055e-06
2.07181e-06
2.27345e-06
2.52329e-06
2.83942e-06
3.2479e-06
3.787e-06
4.51421e-06
5.51792e-06
6.93677e-06
8.99197e-06
1.20403e-05
1.66597e-05
2.37824e-05
3.4898e-05
5.23568e-05
7.98241e-05
0.000122963
0.000190461
0.000295578
0.000458455
0.000709569
0.00109487
0.00168345
0.00255402
0.00387039
0.00591196
0.00898936
0.013637
0.0206796
0.0312441
0.0437269
0.0571016
0.0707252
0.0841944
0.0972579
0.109762
0.121617
0.132773
0.143206
0.152909
0.161887
0.170151
0.177714
0.184594
0.190816
0.19641
0.20141
0.20585
0.209767
0.213198
0.216183
0.218762
0.220974
0.222858
0.224452
0.225792
0.226911
0.227842
0.228612
0.229252
0.229784
3.51092e-09
1.14391e-08
2.03829e-08
3.04602e-08
4.17972e-08
5.45279e-08
6.87923e-08
8.47357e-08
1.02506e-07
1.22253e-07
1.44123e-07
1.68258e-07
1.94791e-07
2.23843e-07
2.5552e-07
2.89908e-07
3.2707e-07
3.67045e-07
4.09844e-07
4.55449e-07
5.03816e-07
5.54872e-07
6.08524e-07
6.64661e-07
7.23163e-07
7.83912e-07
8.4681e-07
9.11794e-07
9.78865e-07
1.04812e-06
1.1198e-06
1.19431e-06
1.27232e-06
1.35483e-06
1.44326e-06
1.53961e-06
1.6466e-06
1.76793e-06
1.90861e-06
2.07544e-06
2.27775e-06
2.52844e-06
2.84572e-06
3.25578e-06
3.79709e-06
4.52752e-06
5.53602e-06
6.9622e-06
9.02884e-06
1.20954e-05
1.6744e-05
2.39141e-05
3.51062e-05
5.2688e-05
8.03509e-05
0.000123798
0.00019178
0.000297648
0.000461686
0.00071458
0.0011026
0.00169516
0.00257174
0.00389712
0.00595271
0.00905119
0.0137308
0.0208222
0.0314268
0.043933
0.0573199
0.0709484
0.0844171
0.0974767
0.109975
0.121821
0.132967
0.143389
0.15308
0.162046
0.170298
0.177848
0.184715
0.190925
0.196507
0.201496
0.205925
0.209831
0.213253
0.216229
0.2188
0.221005
0.222883
0.224472
0.225807
0.226923
0.22785
0.228618
0.229255
0.229785
3.5102e-09
1.14368e-08
2.03787e-08
3.04541e-08
4.1789e-08
5.45173e-08
6.87793e-08
8.47203e-08
1.02489e-07
1.22233e-07
1.44101e-07
1.68234e-07
1.94766e-07
2.23818e-07
2.55496e-07
2.89886e-07
3.27052e-07
3.67033e-07
4.09841e-07
4.55458e-07
5.03841e-07
5.54917e-07
6.08593e-07
6.64759e-07
7.23295e-07
7.84085e-07
8.47029e-07
9.12067e-07
9.79199e-07
1.04852e-06
1.12027e-06
1.19487e-06
1.27297e-06
1.35558e-06
1.44414e-06
1.54062e-06
1.64776e-06
1.76926e-06
1.91016e-06
2.07725e-06
2.27989e-06
2.53101e-06
2.84887e-06
3.25971e-06
3.80214e-06
4.53419e-06
5.5451e-06
6.97497e-06
9.04736e-06
1.21231e-05
1.67865e-05
2.39805e-05
3.52112e-05
5.2855e-05
8.06168e-05
0.00012422
0.000192446
0.000298695
0.000463319
0.000717114
0.00110651
0.00170108
0.0025807
0.00391065
0.00597334
0.00908253
0.0137784
0.0208948
0.0315184
0.0440357
0.0574285
0.0710591
0.0845276
0.0975851
0.11008
0.121922
0.133063
0.143479
0.153165
0.162125
0.17037
0.177915
0.184775
0.190978
0.196555
0.201538
0.205961
0.209863
0.21328
0.216252
0.218819
0.221021
0.222896
0.224482
0.225815
0.226928
0.227854
0.22862
0.229256
0.229786
3.5102e-09
1.14368e-08
2.03788e-08
3.04541e-08
4.1789e-08
5.45173e-08
6.87793e-08
8.47203e-08
1.02489e-07
1.22233e-07
1.44101e-07
1.68234e-07
1.94766e-07
2.23818e-07
2.55496e-07
2.89886e-07
3.27052e-07
3.67033e-07
4.09841e-07
4.55458e-07
5.03841e-07
5.54917e-07
6.08593e-07
6.64759e-07
7.23295e-07
7.84085e-07
8.47029e-07
9.12067e-07
9.79199e-07
1.04852e-06
1.12027e-06
1.19487e-06
1.27297e-06
1.35559e-06
1.44414e-06
1.54062e-06
1.64776e-06
1.76926e-06
1.91016e-06
2.07726e-06
2.27989e-06
2.53101e-06
2.84887e-06
3.25971e-06
3.80214e-06
4.53419e-06
5.5451e-06
6.97497e-06
9.04736e-06
1.21231e-05
1.67865e-05
2.39805e-05
3.52112e-05
5.2855e-05
8.06168e-05
0.00012422
0.000192446
0.000298695
0.000463319
0.000717114
0.00110651
0.00170108
0.0025807
0.00391065
0.00597334
0.00908253
0.0137783
0.0208948
0.0315184
0.0440357
0.0574285
0.0710591
0.0845276
0.0975851
0.11008
0.121922
0.133063
0.143479
0.153165
0.162125
0.17037
0.177915
0.184775
0.190978
0.196555
0.201538
0.205961
0.209863
0.21328
0.216252
0.218819
0.221021
0.222896
0.224482
0.225815
0.226928
0.227854
0.22862
0.229256
0.229786
3.51093e-09
1.14391e-08
2.03829e-08
3.04602e-08
4.17973e-08
5.45279e-08
6.87923e-08
8.47358e-08
1.02506e-07
1.22253e-07
1.44123e-07
1.68258e-07
1.94791e-07
2.23843e-07
2.5552e-07
2.89908e-07
3.2707e-07
3.67045e-07
4.09844e-07
4.55449e-07
5.03816e-07
5.54872e-07
6.08524e-07
6.64661e-07
7.23163e-07
7.83912e-07
8.4681e-07
9.11794e-07
9.78866e-07
1.04812e-06
1.1198e-06
1.19431e-06
1.27232e-06
1.35483e-06
1.44326e-06
1.53961e-06
1.6466e-06
1.76793e-06
1.90861e-06
2.07545e-06
2.27775e-06
2.52844e-06
2.84572e-06
3.25578e-06
3.79709e-06
4.52752e-06
5.53603e-06
6.96221e-06
9.02885e-06
1.20954e-05
1.67441e-05
2.39142e-05
3.51063e-05
5.2688e-05
8.0351e-05
0.000123798
0.00019178
0.000297648
0.000461686
0.00071458
0.0011026
0.00169516
0.00257174
0.00389712
0.00595271
0.00905118
0.0137307
0.0208222
0.0314267
0.0439329
0.0573199
0.0709483
0.0844171
0.0974766
0.109975
0.121821
0.132967
0.143389
0.15308
0.162046
0.170298
0.177848
0.184715
0.190925
0.196507
0.201496
0.205925
0.209831
0.213253
0.216229
0.2188
0.221005
0.222883
0.224472
0.225807
0.226923
0.22785
0.228618
0.229255
0.229785
3.51241e-09
1.14439e-08
2.03914e-08
3.04728e-08
4.18142e-08
5.45496e-08
6.8819e-08
8.47675e-08
1.02543e-07
1.22295e-07
1.44169e-07
1.68308e-07
1.94843e-07
2.23896e-07
2.55572e-07
2.89955e-07
3.27109e-07
3.67071e-07
4.09852e-07
4.55433e-07
5.03768e-07
5.54785e-07
6.08388e-07
6.64466e-07
7.22898e-07
7.83566e-07
8.46369e-07
9.11245e-07
9.78195e-07
1.04731e-06
1.11884e-06
1.19318e-06
1.271e-06
1.3533e-06
1.4415e-06
1.53758e-06
1.64427e-06
1.76524e-06
1.9055e-06
2.07181e-06
2.27346e-06
2.52329e-06
2.83942e-06
3.24791e-06
3.787e-06
4.51421e-06
5.51793e-06
6.93678e-06
8.99199e-06
1.20404e-05
1.66597e-05
2.37825e-05
3.4898e-05
5.23569e-05
7.98242e-05
0.000122963
0.000190461
0.000295578
0.000458455
0.000709569
0.00109487
0.00168345
0.00255402
0.00387038
0.00591196
0.00898935
0.013637
0.0206796
0.031244
0.0437269
0.0571016
0.0707252
0.0841943
0.0972578
0.109762
0.121617
0.132773
0.143206
0.152909
0.161887
0.170151
0.177714
0.184593
0.190816
0.19641
0.20141
0.20585
0.209767
0.213198
0.216183
0.218762
0.220974
0.222858
0.224452
0.225792
0.226911
0.227842
0.228612
0.229252
0.229784
3.51471e-09
1.14514e-08
2.04046e-08
3.04922e-08
4.18405e-08
5.45832e-08
6.88603e-08
8.48168e-08
1.02601e-07
1.2236e-07
1.44241e-07
1.68386e-07
1.94925e-07
2.2398e-07
2.55653e-07
2.9003e-07
3.27172e-07
3.67116e-07
4.0987e-07
4.55416e-07
5.03704e-07
5.54662e-07
6.08192e-07
6.64182e-07
7.22509e-07
7.83054e-07
8.45716e-07
9.10431e-07
9.77198e-07
1.04611e-06
1.11741e-06
1.19149e-06
1.26903e-06
1.35102e-06
1.43887e-06
1.53456e-06
1.64079e-06
1.76123e-06
1.90085e-06
2.06639e-06
2.26705e-06
2.51562e-06
2.83006e-06
3.23622e-06
3.77204e-06
4.4945e-06
5.49115e-06
6.89925e-06
8.93769e-06
1.19594e-05
1.65359e-05
2.35892e-05
3.45928e-05
5.18719e-05
7.90533e-05
0.000121741
0.000188534
0.000292557
0.000453748
0.000702277
0.00108364
0.00166624
0.00252807
0.00383128
0.00585239
0.00889897
0.0134999
0.0204711
0.0309726
0.0434186
0.0567737
0.0703893
0.0838585
0.0969276
0.109442
0.12131
0.13248
0.142929
0.15265
0.161646
0.169929
0.177511
0.184409
0.19065
0.196263
0.201281
0.205737
0.209669
0.213115
0.216113
0.218704
0.220926
0.22282
0.224422
0.225769
0.226894
0.22783
0.228604
0.229247
0.229783
3.5179e-09
1.14617e-08
2.04229e-08
3.05192e-08
4.18771e-08
5.463e-08
6.89179e-08
8.48856e-08
1.02681e-07
1.22451e-07
1.44342e-07
1.68495e-07
1.95041e-07
2.24098e-07
2.5577e-07
2.9014e-07
3.27267e-07
3.67188e-07
4.09907e-07
4.55406e-07
5.03632e-07
5.54512e-07
6.07946e-07
6.63819e-07
7.22007e-07
7.8239e-07
8.44863e-07
9.09363e-07
9.75887e-07
1.04453e-06
1.11552e-06
1.18926e-06
1.26643e-06
1.348e-06
1.43539e-06
1.53055e-06
1.63618e-06
1.75592e-06
1.89471e-06
2.05922e-06
2.25859e-06
2.50549e-06
2.81771e-06
3.22084e-06
3.75238e-06
4.46865e-06
5.45607e-06
6.85008e-06
8.86686e-06
1.1854e-05
1.6375e-05
2.33386e-05
3.41975e-05
5.12446e-05
7.80573e-05
0.000120164
0.00018605
0.000288667
0.000447691
0.000692902
0.00106921
0.00164413
0.00249475
0.00378111
0.00577593
0.00878318
0.0133242
0.0202035
0.0306161
0.0430097
0.0563364
0.0699399
0.0834081
0.0964842
0.109011
0.120895
0.132085
0.142556
0.1523
0.16132
0.169629
0.177237
0.184161
0.190427
0.196065
0.201106
0.205584
0.209537
0.213002
0.216018
0.218625
0.220862
0.222768
0.224381
0.225737
0.226871
0.227813
0.228594
0.229242
0.229782
3.5221e-09
1.14753e-08
2.04469e-08
3.05548e-08
4.19252e-08
5.46917e-08
6.89939e-08
8.49765e-08
1.02787e-07
1.22572e-07
1.44477e-07
1.68642e-07
1.95196e-07
2.24259e-07
2.5593e-07
2.90292e-07
3.27403e-07
3.67295e-07
4.09973e-07
4.55414e-07
5.03565e-07
5.54348e-07
6.07663e-07
6.63391e-07
7.21406e-07
7.81586e-07
8.43825e-07
9.08057e-07
9.74277e-07
1.04258e-06
1.11319e-06
1.18651e-06
1.26321e-06
1.34426e-06
1.43107e-06
1.52558e-06
1.63046e-06
1.74934e-06
1.88709e-06
2.05034e-06
2.24812e-06
2.49295e-06
2.80241e-06
3.20189e-06
3.72825e-06
4.43703e-06
5.41335e-06
6.79052e-06
8.78066e-06
1.17258e-05
1.61795e-05
2.30346e-05
3.37186e-05
5.04859e-05
7.68546e-05
0.000118263
0.000183061
0.000283994
0.000440433
0.000681696
0.001052
0.00161786
0.00245528
0.00372203
0.00568642
0.00864767
0.0131192
0.0198922
0.0301824
0.0425034
0.0557902
0.0693758
0.0828411
0.0959249
0.108467
0.120371
0.131586
0.142084
0.151857
0.160908
0.169248
0.176889
0.183845
0.190143
0.195812
0.200883
0.20539
0.209369
0.212859
0.215897
0.218524
0.22078
0.222702
0.224329
0.225697
0.226841
0.227792
0.22858
0.229234
0.229779
3.52744e-09
1.14926e-08
2.04776e-08
3.06002e-08
4.19866e-08
5.47704e-08
6.90911e-08
8.50928e-08
1.02922e-07
1.22727e-07
1.4465e-07
1.68831e-07
1.95399e-07
2.24469e-07
2.56142e-07
2.90497e-07
3.27589e-07
3.67449e-07
4.1008e-07
4.55454e-07
5.03516e-07
5.54186e-07
6.07359e-07
6.62914e-07
7.20724e-07
7.80662e-07
8.4262e-07
9.0653e-07
9.72387e-07
1.04028e-06
1.11043e-06
1.18325e-06
1.25939e-06
1.33982e-06
1.42594e-06
1.51967e-06
1.62367e-06
1.74151e-06
1.87804e-06
2.0398e-06
2.23574e-06
2.47819e-06
2.78453e-06
3.17953e-06
3.69971e-06
4.39961e-06
5.36281e-06
6.72006e-06
8.67919e-06
1.15754e-05
1.59506e-05
2.26792e-05
3.31598e-05
4.96018e-05
7.54549e-05
0.000116055
0.000179594
0.000278585
0.000432052
0.000668798
0.00103229
0.00158791
0.00241062
0.00365522
0.00558581
0.00849685
0.0128942
0.0195569
0.0296792