/*--------------------------------*- C++ -*----------------------------------*\
| =========                 |                                                 |
| \\      /  F ield         | OpenFOAM: The Open Source CFD Toolbox           |
|  \\    /   O peration     | Version:  2.3.x                                 |
|   \\  /    A nd           | Web:      www.OpenFOAM.org                      |
|    \\/     M anipulation  |                                                 |
\*---------------------------------------------------------------------------*/
FoamFile
{
    version     2.0;
    format      ascii;
    class       surfaceScalarField;
    location    "0.5";
    object      phi;
}
// * * * * * * * * * * * * * * * * * * * * * * * * * * * * * * * * * * * * * //

dimensions      [1 0 -1 0 0 0 0];

internalField   nonuniform List<scalar> 
7860
(
2.39531e-07
-6.95001e-09
2.36579e-07
-2.04728e-08
2.32925e-07
-3.3331e-08
2.28698e-07
-4.54792e-08
2.23977e-07
-5.69961e-08
2.1881e-07
-6.7929e-08
2.13228e-07
-7.83104e-08
2.07249e-07
-8.81629e-08
2.00891e-07
-9.75017e-08
1.94166e-07
-1.06337e-07
1.87091e-07
-1.14675e-07
1.79679e-07
-1.22521e-07
1.71948e-07
-1.29875e-07
1.63915e-07
-1.36742e-07
1.55601e-07
-1.43122e-07
1.47026e-07
-1.49019e-07
1.38212e-07
-1.54435e-07
1.29183e-07
-1.59376e-07
1.19965e-07
-1.63846e-07
1.10581e-07
-1.67852e-07
1.01058e-07
-1.71403e-07
9.14218e-08
-1.74508e-07
8.16988e-08
-1.77179e-07
7.19151e-08
-1.79423e-07
6.20964e-08
-1.8125e-07
5.22684e-08
-1.82671e-07
4.24569e-08
-1.83701e-07
3.26863e-08
-1.84352e-07
2.29798e-08
-1.84641e-07
1.33599e-08
-1.84582e-07
3.84746e-09
-1.84192e-07
-5.53765e-09
-1.83487e-07
-1.47771e-08
-1.82487e-07
-2.38542e-08
-1.81208e-07
-3.27534e-08
-1.7967e-07
-4.14612e-08
-1.77891e-07
-4.99655e-08
-1.75892e-07
-5.82557e-08
-1.73692e-07
-6.63228e-08
-1.71311e-07
-7.41596e-08
-1.68769e-07
-8.17601e-08
-1.66086e-07
-8.912e-08
-1.63283e-07
-9.62361e-08
-1.60379e-07
-1.03107e-07
-1.57393e-07
-1.09731e-07
-1.54343e-07
-1.1611e-07
-1.51249e-07
-1.22245e-07
-1.48127e-07
-1.28138e-07
-1.44994e-07
-1.33793e-07
-1.41865e-07
-1.39213e-07
-1.38757e-07
-1.44403e-07
-1.35682e-07
-1.49369e-07
-1.32654e-07
-1.54115e-07
-1.29686e-07
-1.58648e-07
-1.2679e-07
-1.62974e-07
-1.23977e-07
-1.67101e-07
-1.21259e-07
-1.71035e-07
-1.18646e-07
-1.74785e-07
-1.16152e-07
-1.78362e-07
-1.13788e-07
-1.81776e-07
-1.11568e-07
-1.85041e-07
-1.0951e-07
-1.88177e-07
-1.07633e-07
-1.91208e-07
-1.05964e-07
-1.94165e-07
-1.0455e-07
-1.97084e-07
-1.03413e-07
-2.0002e-07
-1.02596e-07
-2.03056e-07
-1.022e-07
-2.06302e-07
-1.02337e-07
-2.09884e-07
-1.03173e-07
-2.13886e-07
-1.0498e-07
-2.18291e-07
-1.07412e-07
-2.23044e-07
-1.10221e-07
-2.28112e-07
-1.13249e-07
-2.33474e-07
-1.16398e-07
-2.3912e-07
-1.19597e-07
-2.45044e-07
-1.22793e-07
-2.51243e-07
-1.25942e-07
-2.57721e-07
-1.28999e-07
-2.64482e-07
-1.31921e-07
-2.7153e-07
-1.34657e-07
-2.78871e-07
-1.37152e-07
-2.86506e-07
-1.39341e-07
-2.94436e-07
-1.41149e-07
-3.02655e-07
-1.42485e-07
-3.11153e-07
-1.43254e-07
-3.19913e-07
-1.43347e-07
-3.28912e-07
-1.42648e-07
-3.38116e-07
-1.41036e-07
-3.47483e-07
-1.38381e-07
-3.56957e-07
-1.34558e-07
-3.66474e-07
-1.29442e-07
-3.75958e-07
-1.22919e-07
-3.85322e-07
-1.14887e-07
-3.94466e-07
-1.05259e-07
-4.03277e-07
-9.39644e-08
-4.11616e-07
-8.09449e-08
-4.19309e-07
-6.61502e-08
-4.26122e-07
-4.95271e-08
-4.31723e-07
-3.09752e-08
-1.06414e-08
2.40528e-07
-6.29034e-09
2.38572e-07
-1.85169e-08
2.35572e-07
-3.03309e-08
2.31777e-07
-4.16837e-08
2.27332e-07
-5.25519e-08
2.22334e-07
-6.29302e-08
2.16844e-07
-7.28202e-08
2.10906e-07
-8.22253e-08
2.04553e-07
-9.11491e-08
1.97812e-07
-9.95953e-08
1.90703e-07
-1.07567e-07
1.83248e-07
-1.15066e-07
1.75468e-07
-1.22095e-07
1.67382e-07
-1.28656e-07
1.59012e-07
-1.34753e-07
1.50381e-07
-1.40388e-07
1.41511e-07
-1.45566e-07
1.32427e-07
-1.50291e-07
1.23152e-07
-1.54571e-07
1.13713e-07
-1.58413e-07
1.04135e-07
-1.61825e-07
9.4443e-08
-1.64817e-07
8.46637e-08
-1.67399e-07
7.48229e-08
-1.69582e-07
6.49464e-08
-1.71373e-07
5.5059e-08
-1.72784e-07
4.51861e-08
-1.73828e-07
3.53515e-08
-1.74518e-07
2.55785e-08
-1.74868e-07
1.58892e-08
-1.74892e-07
6.30443e-09
-1.74607e-07
-3.15609e-09
-1.74027e-07
-1.24741e-08
-1.73169e-07
-2.16327e-08
-1.7205e-07
-3.06166e-08
-1.70686e-07
-3.94119e-08
-1.69096e-07
-4.80066e-08
-1.67297e-07
-5.63898e-08
-1.65309e-07
-6.45525e-08
-1.63148e-07
-7.24872e-08
-1.60834e-07
-8.01878e-08
-1.58386e-07
-8.76498e-08
-1.55821e-07
-9.48698e-08
-1.53159e-07
-1.01846e-07
-1.50417e-07
-1.08578e-07
-1.47612e-07
-1.15065e-07
-1.44761e-07
-1.21311e-07
-1.41882e-07
-1.27315e-07
-1.38989e-07
-1.33083e-07
-1.36098e-07
-1.38618e-07
-1.33222e-07
-1.43924e-07
-1.30375e-07
-1.49008e-07
-1.27571e-07
-1.53874e-07
-1.2482e-07
-1.58529e-07
-1.22135e-07
-1.62981e-07
-1.19525e-07
-1.67237e-07
-1.17003e-07
-1.71306e-07
-1.14578e-07
-1.75198e-07
-1.1226e-07
-1.78925e-07
-1.10061e-07
-1.825e-07
-1.07993e-07
-1.85942e-07
-1.06068e-07
-1.89271e-07
-1.04304e-07
-1.92514e-07
-1.02721e-07
-1.95707e-07
-1.01357e-07
-1.989e-07
-1.00219e-07
-2.02139e-07
-9.9357e-08
-2.05492e-07
-9.88456e-08
-2.09038e-07
-9.87903e-08
-2.12842e-07
-9.93681e-08
-2.16962e-07
-1.0086e-07
-2.21428e-07
-1.02945e-07
-2.2624e-07
-1.05408e-07
-2.31381e-07
-1.08107e-07
-2.36836e-07
-1.1094e-07
-2.42594e-07
-1.13836e-07
-2.48649e-07
-1.16737e-07
-2.54995e-07
-1.19592e-07
-2.61635e-07
-1.22357e-07
-2.6857e-07
-1.24983e-07
-2.75802e-07
-1.27422e-07
-2.83334e-07
-1.29617e-07
-2.91167e-07
-1.31504e-07
-2.99299e-07
-1.33013e-07
-3.07724e-07
-1.34057e-07
-3.16429e-07
-1.34544e-07
-3.25397e-07
-1.34375e-07
-3.346e-07
-1.33442e-07
-3.44e-07
-1.31631e-07
-3.53552e-07
-1.28826e-07
-3.63192e-07
-1.24914e-07
-3.72846e-07
-1.19784e-07
-3.82423e-07
-1.13338e-07
-3.91813e-07
-1.05493e-07
-4.00884e-07
-9.61849e-08
-4.09473e-07
-8.5373e-08
-4.17374e-07
-7.30415e-08
-4.2432e-07
-5.92036e-08
-4.29936e-07
-4.39095e-08
-4.33653e-07
-2.72571e-08
-9.38238e-09
2.406e-07
-5.7027e-09
2.38982e-07
-1.68981e-08
2.36445e-07
-2.77947e-08
2.33101e-07
-3.83395e-08
2.29049e-07
-4.84992e-08
2.24369e-07
-5.82509e-08
2.1913e-07
-6.75805e-08
2.13383e-07
-7.64785e-08
2.07173e-07
-8.49393e-08
2.00537e-07
-9.29594e-08
1.93507e-07
-1.00537e-07
1.86112e-07
-1.07671e-07
1.78378e-07
-1.14361e-07
1.70332e-07
-1.2061e-07
1.61997e-07
-1.26418e-07
1.534e-07
-1.3179e-07
1.44564e-07
-1.3673e-07
1.35515e-07
-1.41242e-07
1.26277e-07
-1.45333e-07
1.16875e-07
-1.49012e-07
1.07336e-07
-1.52285e-07
9.76831e-08
-1.55164e-07
8.79419e-08
-1.57658e-07
7.81374e-08
-1.59777e-07
6.82943e-08
-1.6153e-07
5.84369e-08
-1.62926e-07
4.85886e-08
-1.63979e-07
3.87725e-08
-1.64702e-07
2.90107e-08
-1.65106e-07
1.93245e-08
-1.65206e-07
9.73388e-09
-1.65016e-07
2.57937e-10
-1.64551e-07
-9.0856e-09
-1.63826e-07
-1.82803e-08
-1.62855e-07
-2.7311e-08
-1.61655e-07
-3.61642e-08
-1.60243e-07
-4.48277e-08
-1.58634e-07
-5.32907e-08
-1.56846e-07
-6.1544e-08
-1.54895e-07
-6.95799e-08
-1.52799e-07
-7.73921e-08
-1.50574e-07
-8.49756e-08
-1.48238e-07
-9.23269e-08
-1.45808e-07
-9.94438e-08
-1.433e-07
-1.06325e-07
-1.4073e-07
-1.12972e-07
-1.38115e-07
-1.19384e-07
-1.3547e-07
-1.25565e-07
-1.32808e-07
-1.31517e-07
-1.30145e-07
-1.37245e-07
-1.27494e-07
-1.42754e-07
-1.24867e-07
-1.4805e-07
-1.22275e-07
-1.53139e-07
-1.19731e-07
-1.58029e-07
-1.17245e-07
-1.62728e-07
-1.14826e-07
-1.67247e-07
-1.12484e-07
-1.71596e-07
-1.10229e-07
-1.75788e-07
-1.08068e-07
-1.79836e-07
-1.06012e-07
-1.83759e-07
-1.0407e-07
-1.87575e-07
-1.02252e-07
-1.91307e-07
-1.00571e-07
-1.94981e-07
-9.9047e-08
-1.98627e-07
-9.77105e-08
-2.0229e-07
-9.65561e-08
-2.06002e-07
-9.56451e-08
-2.09804e-07
-9.50437e-08
-2.13736e-07
-9.48576e-08
-2.17835e-07
-9.52686e-08
-2.22166e-07
-9.65278e-08
-2.26773e-07
-9.8336e-08
-2.31678e-07
-1.00501e-07
-2.36889e-07
-1.02894e-07
-2.42406e-07
-1.05422e-07
-2.48228e-07
-1.08012e-07
-2.54353e-07
-1.1061e-07
-2.6078e-07
-1.13163e-07
-2.67507e-07
-1.15627e-07
-2.74534e-07
-1.17954e-07
-2.81859e-07
-1.20093e-07
-2.89482e-07
-1.21991e-07
-2.97398e-07
-1.23585e-07
-3.056e-07
-1.24808e-07
-3.14077e-07
-1.25576e-07
-3.22811e-07
-1.25806e-07
-3.31777e-07
-1.25404e-07
-3.40943e-07
-1.24272e-07
-3.50264e-07
-1.22306e-07
-3.59682e-07
-1.19404e-07
-3.69129e-07
-1.15464e-07
-3.78516e-07
-1.10394e-07
-3.87738e-07
-1.04113e-07
-3.96669e-07
-9.65589e-08
-4.0516e-07
-8.76913e-08
-4.13035e-07
-7.74956e-08
-4.20089e-07
-6.59856e-08
-4.26083e-07
-5.32075e-08
-4.30746e-07
-3.92453e-08
-4.33788e-07
-2.42146e-08
-8.25765e-09
2.40725e-07
-5.23926e-09
2.39356e-07
-1.55297e-08
2.37138e-07
-2.55768e-08
2.34138e-07
-3.53395e-08
2.30423e-07
-4.4784e-08
2.26056e-07
-5.38836e-08
2.21094e-07
-6.26182e-08
2.15587e-07
-7.09724e-08
2.09583e-07
-7.89347e-08
2.0312e-07
-8.64968e-08
1.96237e-07
-9.36529e-08
1.88965e-07
-1.00399e-07
1.81337e-07
-1.06733e-07
1.73382e-07
-1.12654e-07
1.65128e-07
-1.18164e-07
1.56603e-07
-1.23265e-07
1.47833e-07
-1.2796e-07
1.38845e-07
-1.32254e-07
1.29665e-07
-1.36153e-07
1.20319e-07
-1.39665e-07
1.10831e-07
-1.42798e-07
1.01227e-07
-1.4556e-07
9.15314e-08
-1.47962e-07
8.17683e-08
-1.50014e-07
7.19613e-08
-1.51723e-07
6.21349e-08
-1.531e-07
5.23117e-08
-1.54156e-07
4.25135e-08
-1.54903e-07
3.27618e-08
-1.55354e-07
2.30767e-08
-1.55521e-07
1.34777e-08
-1.55417e-07
3.983e-09
-1.55057e-07
-5.39025e-09
-1.54452e-07
-1.46261e-08
-1.53619e-07
-2.371e-08
-1.52572e-07
-3.26286e-08
-1.51324e-07
-4.13699e-08
-1.49893e-07
-4.99233e-08
-1.48292e-07
-5.82798e-08
-1.46539e-07
-6.64315e-08
-1.44647e-07
-7.43722e-08
-1.42633e-07
-8.20967e-08
-1.40514e-07
-8.96016e-08
-1.38303e-07
-9.68844e-08
-1.36017e-07
-1.03944e-07
-1.33671e-07
-1.1078e-07
-1.31279e-07
-1.17395e-07
-1.28856e-07
-1.2379e-07
-1.26414e-07
-1.29969e-07
-1.23967e-07
-1.35936e-07
-1.21527e-07
-1.41696e-07
-1.19106e-07
-1.47256e-07
-1.16715e-07
-1.52624e-07
-1.14364e-07
-1.57808e-07
-1.12062e-07
-1.62816e-07
-1.09818e-07
-1.6766e-07
-1.0764e-07
-1.72353e-07
-1.05537e-07
-1.76906e-07
-1.03515e-07
-1.81336e-07
-1.01583e-07
-1.85659e-07
-9.97468e-08
-1.89895e-07
-9.80168e-08
-1.94064e-07
-9.64027e-08
-1.98187e-07
-9.49233e-08
-2.02293e-07
-9.36047e-08
-2.06407e-07
-9.24415e-08
-2.10556e-07
-9.14955e-08
-2.14766e-07
-9.08332e-08
-2.19061e-07
-9.05621e-08
-2.23462e-07
-9.08675e-08
-2.28039e-07
-9.19499e-08
-2.32841e-07
-9.35324e-08
-2.37899e-07
-9.54418e-08
-2.43232e-07
-9.75601e-08
-2.4885e-07
-9.98021e-08
-2.54758e-07
-1.02102e-07
-2.6096e-07
-1.04405e-07
-2.67456e-07
-1.06665e-07
-2.74247e-07
-1.08834e-07
-2.81329e-07
-1.10868e-07
-2.88701e-07
-1.12718e-07
-2.96357e-07
-1.14332e-07
-3.04288e-07
-1.1565e-07
-3.12485e-07
-1.16607e-07
-3.2093e-07
-1.17128e-07
-3.29601e-07
-1.17132e-07
-3.38466e-07
-1.16536e-07
-3.47485e-07
-1.15249e-07
-3.56608e-07
-1.13179e-07
-3.65771e-07
-1.10237e-07
-3.74895e-07
-1.06336e-07
-3.83887e-07
-1.01398e-07
-3.92636e-07
-9.5361e-08
-4.01012e-07
-8.81799e-08
-4.08867e-07
-7.98331e-08
-4.16037e-07
-7.03239e-08
-4.22337e-07
-5.96827e-08
-4.27574e-07
-4.79691e-08
-4.31545e-07
-3.52738e-08
-4.34049e-07
-2.171e-08
-7.39375e-09
2.40767e-07
-4.81861e-09
2.39531e-07
-1.42929e-08
2.37511e-07
-2.35572e-08
2.3475e-07
-3.25784e-08
2.31293e-07
-4.1327e-08
2.27187e-07
-4.97776e-08
2.22478e-07
-5.79092e-08
2.1721e-07
-6.57046e-08
2.11425e-07
-7.31501e-08
2.05163e-07
-8.02347e-08
1.98461e-07
-8.69503e-08
1.91353e-07
-9.32908e-08
1.83872e-07
-9.92524e-08
1.76051e-07
-1.04833e-07
1.67919e-07
-1.10032e-07
1.59505e-07
-1.14851e-07
1.50838e-07
-1.19293e-07
1.41946e-07
-1.23362e-07
1.32855e-07
-1.27062e-07
1.23591e-07
-1.30401e-07
1.1418e-07
-1.33387e-07
1.04648e-07
-1.36027e-07
9.5017e-08
-1.38332e-07
8.53129e-08
-1.4031e-07
7.55587e-08
-1.41969e-07
6.57773e-08
-1.43319e-07
5.59908e-08
-1.4437e-07
4.62206e-08
-1.45133e-07
3.64871e-08
-1.45621e-07
2.68099e-08
-1.45844e-07
1.72077e-08
-1.45815e-07
7.69818e-09
-1.45547e-07
-1.7022e-09
-1.45052e-07
-1.0978e-08
-1.44343e-07
-2.01152e-08
-1.43435e-07
-2.91006e-08
-1.42339e-07
-3.79228e-08
-1.41071e-07
-4.65712e-08
-1.39644e-07
-5.5037e-08
-1.38073e-07
-6.33124e-08
-1.36372e-07
-7.1391e-08
-1.34555e-07
-7.92679e-08
-1.32637e-07
-8.69393e-08
-1.30632e-07
-9.44027e-08
-1.28554e-07
-1.01657e-07
-1.26417e-07
-1.08702e-07
-1.24234e-07
-1.1554e-07
-1.22018e-07
-1.22171e-07
-1.19782e-07
-1.286e-07
-1.17538e-07
-1.34831e-07
-1.15296e-07
-1.4087e-07
-1.13068e-07
-1.46723e-07
-1.10862e-07
-1.52397e-07
-1.0869e-07
-1.57902e-07
-1.06557e-07
-1.63246e-07
-1.04473e-07
-1.68441e-07
-1.02445e-07
-1.73499e-07
-1.0048e-07
-1.78432e-07
-9.85824e-08
-1.83254e-07
-9.67602e-08
-1.87982e-07
-9.50194e-08
-1.92631e-07
-9.33675e-08
-1.97219e-07
-9.1814e-08
-2.01765e-07
-9.03779e-08
-2.06288e-07
-8.9081e-08
-2.10809e-07
-8.79208e-08
-2.15345e-07
-8.69587e-08
-2.19916e-07
-8.62622e-08
-2.24537e-07
-8.59404e-08
-2.29223e-07
-8.61808e-08
-2.34047e-07
-8.71245e-08
-2.39059e-07
-8.8519e-08
-2.44293e-07
-9.02069e-08
-2.4977e-07
-9.20815e-08
-2.55505e-07
-9.40649e-08
-2.61508e-07
-9.60966e-08
-2.67784e-07
-9.81265e-08
-2.74337e-07
-1.0011e-07
-2.81165e-07
-1.02003e-07
-2.88267e-07
-1.03763e-07
-2.95637e-07
-1.05344e-07
-3.03269e-07
-1.06697e-07
-3.11151e-07
-1.07765e-07
-3.19267e-07
-1.08487e-07
-3.27598e-07
-1.08793e-07
-3.36114e-07
-1.08612e-07
-3.44782e-07
-1.07864e-07
-3.53555e-07
-1.06471e-07
-3.62379e-07
-1.04352e-07
-3.71185e-07
-1.01427e-07
-3.79893e-07
-9.76236e-08
-3.88409e-07
-9.28787e-08
-3.96623e-07
-8.71434e-08
-4.04413e-07
-8.03868e-08
-4.11644e-07
-7.25998e-08
-4.18169e-07
-6.37963e-08
-4.23836e-07
-5.40138e-08
-4.28489e-07
-4.33147e-08
-4.31976e-07
-3.17858e-08
-4.34157e-07
-1.9528e-08
-6.63834e-09
2.40801e-07
-4.43137e-09
2.39654e-07
-1.31461e-08
2.37771e-07
-2.16746e-08
2.35183e-07
-2.99898e-08
2.31922e-07
-3.80664e-08
2.28026e-07
-4.58814e-08
2.23532e-07
-5.34148e-08
2.18477e-07
-6.06497e-08
2.12899e-07
-6.75719e-08
2.06834e-07
-7.41697e-08
2.00317e-07
-8.04336e-08
1.93383e-07
-8.63568e-08
1.86065e-07
-9.1934e-08
1.78394e-07
-9.7162e-08
1.70401e-07
-1.0204e-07
1.62117e-07
-1.06567e-07
1.5357e-07
-1.10746e-07
1.44788e-07
-1.1458e-07
1.35799e-07
-1.18073e-07
1.26629e-07
-1.21232e-07
1.17305e-07
-1.24062e-07
1.07851e-07
-1.26573e-07
9.82909e-08
-1.28772e-07
8.8649e-08
-1.30668e-07
7.89492e-08
-1.32269e-07
6.92132e-08
-1.33583e-07
5.94627e-08
-1.34619e-07
4.97186e-08
-1.35389e-07
4.00008e-08
-1.35903e-07
3.03283e-08
-1.36172e-07
2.07193e-08
-1.36206e-07
1.11909e-08
-1.36019e-07
1.75893e-09
-1.3562e-07
-7.56152e-09
-1.35023e-07
-1.67567e-08
-1.3424e-07
-2.5814e-08
-1.33282e-07
-3.47221e-08
-1.32163e-07
-4.34708e-08
-1.30896e-07
-5.20511e-08
-1.29493e-07
-6.04557e-08
-1.27967e-07
-6.8678e-08
-1.26333e-07
-7.67132e-08
-1.24602e-07
-8.45573e-08
-1.22788e-07
-9.22078e-08
-1.20904e-07
-9.96634e-08
-1.18961e-07
-1.06924e-07
-1.16974e-07
-1.1399e-07
-1.14952e-07
-1.20865e-07
-1.12908e-07
-1.27551e-07
-1.10853e-07
-1.34052e-07
-1.08795e-07
-1.40373e-07
-1.06746e-07
-1.46522e-07
-1.04714e-07
-1.52504e-07
-1.02707e-07
-1.58329e-07
-1.00732e-07
-1.64006e-07
-9.87973e-08
-1.69543e-07
-9.69079e-08
-1.74953e-07
-9.50698e-08
-1.80247e-07
-9.32886e-08
-1.85438e-07
-9.15698e-08
-1.90538e-07
-8.99191e-08
-1.95562e-07
-8.83434e-08
-2.00525e-07
-8.68514e-08
-2.05439e-07
-8.54637e-08
-2.10322e-07
-8.41977e-08
-2.15188e-07
-8.30542e-08
-2.20052e-07
-8.20942e-08
-2.24929e-07
-8.13854e-08
-2.29831e-07
-8.10373e-08
-2.34773e-07
-8.12379e-08
-2.39827e-07
-8.20694e-08
-2.45042e-07
-8.33036e-08
-2.50449e-07
-8.47983e-08
-2.56072e-07
-8.64566e-08
-2.61927e-07
-8.82078e-08
-2.68025e-07
-8.99967e-08
-2.74372e-07
-9.17775e-08
-2.8097e-07
-9.35086e-08
-2.8782e-07
-9.51501e-08
-2.94919e-07
-9.66616e-08
-3.0226e-07
-9.80001e-08
-3.09834e-07
-9.91193e-08
-3.17627e-07
-9.99682e-08
-3.25621e-07
-1.00489e-07
-3.33792e-07
-1.00618e-07
-3.4211e-07
-1.0029e-07
-3.50536e-07
-9.94351e-08
-3.59021e-07
-9.79822e-08
-3.67509e-07
-9.58601e-08
-3.75931e-07
-9.3001e-08
-3.84207e-07
-8.93433e-08
-3.92247e-07
-8.48355e-08
-3.99947e-07
-7.94398e-08
-4.07196e-07
-7.31354e-08
-4.13871e-07
-6.59217e-08
-4.19847e-07
-5.78178e-08
-4.24995e-07
-4.88636e-08
-4.29189e-07
-3.91193e-08
-4.32309e-07
-2.86647e-08
-4.34247e-07
-1.75891e-08
-5.97334e-09
2.40821e-07
-4.06479e-09
2.39736e-07
-1.20604e-08
2.3795e-07
-1.98892e-08
2.35489e-07
-2.75283e-08
2.32378e-07
-3.49559e-08
2.28649e-07
-4.21515e-08
2.24331e-07
-4.9097e-08
2.19457e-07
-5.57764e-08
2.14062e-07
-6.21761e-08
2.08177e-07
-6.82845e-08
2.01835e-07
-7.40919e-08
1.95069e-07
-7.9591e-08
1.87911e-07
-8.4776e-08
1.80392e-07
-8.96431e-08
1.72543e-07
-9.41903e-08
1.64393e-07
-9.84171e-08
1.55971e-07
-1.02324e-07
1.47306e-07
-1.05915e-07
1.38425e-07
-1.09192e-07
1.29355e-07
-1.12161e-07
1.2012e-07
-1.14828e-07
1.10748e-07
-1.172e-07
1.01261e-07
-1.19285e-07
9.16827e-08
-1.2109e-07
8.2037e-08
-1.22623e-07
7.23456e-08
-1.23891e-07
6.26296e-08
-1.24903e-07
5.29095e-08
-1.25669e-07
4.32047e-08
-1.26198e-07
3.35339e-08
-1.26501e-07
2.39147e-08
-1.26587e-07
1.43638e-08
-1.26468e-07
4.89684e-09
-1.26153e-07
-4.47167e-09
-1.25655e-07
-1.37282e-08
-1.24983e-07
-2.28605e-08
-1.2415e-07
-3.18573e-08
-1.23166e-07
-4.07087e-08
-1.22044e-07
-4.94059e-08
-1.20796e-07
-5.79412e-08
-1.19432e-07
-6.63084e-08
-1.17966e-07
-7.45024e-08
-1.16408e-07
-8.25191e-08
-1.14771e-07
-9.0356e-08
-1.13067e-07
-9.80113e-08
-1.11306e-07
-1.05485e-07
-1.095e-07
-1.12777e-07
-1.0766e-07
-1.1989e-07
-1.05796e-07
-1.26826e-07
-1.03917e-07
-1.33589e-07
-1.02033e-07
-1.40184e-07
-1.00152e-07
-1.46616e-07
-9.82821e-08
-1.52892e-07
-9.6431e-08
-1.5902e-07
-9.46051e-08
-1.65007e-07
-9.28105e-08
-1.70862e-07
-9.10528e-08
-1.76595e-07
-8.93369e-08
-1.82216e-07
-8.76677e-08
-1.87736e-07
-8.60502e-08
-1.93165e-07
-8.44897e-08
-1.98516e-07
-8.29926e-08
-2.038e-07
-8.15675e-08
-2.09027e-07
-8.02361e-08
-2.14213e-07
-7.9012e-08
-2.19368e-07
-7.7899e-08
-2.24504e-07
-7.69572e-08
-2.29636e-07
-7.62535e-08
-2.34776e-07
-7.58965e-08
-2.3994e-07
-7.60725e-08
-2.45198e-07
-7.68107e-08
-2.50594e-07
-7.79059e-08
-2.56161e-07
-7.92301e-08
-2.6192e-07
-8.06959e-08
-2.67887e-07
-8.22393e-08
-2.74071e-07
-8.38104e-08
-2.80478e-07
-8.53672e-08
-2.87112e-07
-8.6872e-08
-2.93972e-07
-8.82881e-08
-3.01052e-07
-8.95782e-08
-3.08346e-07
-9.07029e-08
-3.15842e-07
-9.16195e-08
-3.23526e-07
-9.22812e-08
-3.31376e-07
-9.26347e-08
-3.39367e-07
-9.2623e-08
-3.47467e-07
-9.21867e-08
-3.55634e-07
-9.1264e-08
-3.6382e-07
-8.97918e-08
-3.71969e-07
-8.77079e-08
-3.80012e-07
-8.4954e-08
-3.87873e-07
-8.14782e-08
-3.95467e-07
-7.72385e-08
-4.02697e-07
-7.22057e-08
-4.09464e-07
-6.63662e-08
-4.15658e-07
-5.97244e-08
-4.21172e-07
-5.23021e-08
-4.25895e-07
-4.41385e-08
-4.29722e-07
-3.52902e-08
-4.32557e-07
-2.5829e-08
-4.34312e-07
-1.58337e-08
-5.37255e-09
2.40837e-07
-3.71396e-09
2.39797e-07
-1.10205e-08
2.38085e-07
-1.8177e-08
2.35721e-07
-2.51641e-08
2.32727e-07
-3.19627e-08
2.29131e-07
-3.85547e-08
2.24957e-07
-4.49238e-08
2.20237e-07
-5.10555e-08
2.14997e-07
-5.6937e-08
2.0927e-07
-6.25573e-08
2.03085e-07
-6.79072e-08
1.96474e-07
-7.29791e-08
1.89465e-07
-7.77674e-08
1.8209e-07
-8.22678e-08
1.74377e-07
-8.64779e-08
1.66357e-07
-9.03967e-08
1.58057e-07
-9.40247e-08
1.49506e-07
-9.73636e-08
1.4073e-07
-1.00416e-07
1.31757e-07
-1.03188e-07
1.22611e-07
-1.05682e-07
1.13318e-07
-1.07907e-07
1.039e-07
-1.09868e-07
9.43834e-08
-1.11573e-07
8.47886e-08
-1.13029e-07
7.51381e-08
-1.14241e-07
6.54526e-08
-1.15218e-07
5.57524e-08
-1.15969e-07
4.60566e-08
-1.16503e-07
3.63834e-08
-1.16828e-07
2.67501e-08
-1.16954e-07
1.71732e-08
-1.16891e-07
7.66793e-09
-1.16648e-07
-1.75139e-09
-1.16236e-07
-1.10715e-08
-1.15663e-07
-2.02803e-08
-1.14941e-07
-2.93666e-08
-1.1408e-07
-3.83206e-08
-1.13091e-07
-4.71335e-08
-1.11983e-07
-5.57977e-08
-1.10768e-07
-6.43068e-08
-1.09457e-07
-7.26555e-08
-1.0806e-07
-8.08395e-08
-1.06588e-07
-8.88561e-08
-1.05051e-07
-9.67031e-08
-1.0346e-07
-1.0438e-07
-1.01824e-07
-1.11887e-07
-1.00154e-07
-1.19225e-07
-9.84579e-08
-1.26396e-07
-9.67455e-08
-1.33404e-07
-9.50247e-08
-1.40253e-07
-9.33032e-08
-1.46947e-07
-9.15881e-08
-1.53492e-07
-8.98859e-08
-1.59895e-07
-8.82026e-08
-1.66162e-07
-8.65437e-08
-1.72301e-07
-8.49139e-08
-1.7832e-07
-8.3318e-08
-1.84228e-07
-8.17602e-08
-1.90033e-07
-8.02451e-08
-1.95745e-07
-7.87778e-08
-2.01373e-07
-7.73646e-08
-2.06927e-07
-7.60137e-08
-2.12415e-07
-7.47478e-08
-2.1785e-07
-7.35764e-08
-2.23243e-07
-7.25067e-08
-2.28603e-07
-7.15967e-08
-2.33943e-07
-7.09122e-08
-2.3928e-07
-7.05589e-08
-2.44633e-07
-7.07193e-08
-2.50065e-07
-7.13773e-08
-2.5562e-07
-7.23498e-08
-2.61326e-07
-7.35222e-08
-2.67204e-07
-7.48158e-08
-2.73268e-07
-7.61732e-08
-2.79527e-07
-7.75493e-08
-2.85986e-07
-7.89062e-08
-2.92645e-07
-8.02096e-08
-2.99504e-07
-8.14263e-08
-3.06557e-07
-8.25222e-08
-3.13795e-07
-8.34614e-08
-3.21206e-07
-8.4205e-08
-3.28773e-07
-8.47106e-08
-3.36475e-07
-8.49294e-08
-3.44283e-07
-8.48104e-08
-3.52165e-07
-8.43008e-08
-3.6008e-07
-8.33454e-08
-3.67979e-07
-8.18886e-08
-3.75806e-07
-7.98766e-08
-3.83497e-07
-7.72591e-08
-3.90979e-07
-7.39924e-08
-3.98172e-07
-7.00422e-08
-4.04989e-07
-6.53858e-08
-4.11337e-07
-6.00148e-08
-4.17122e-07
-5.39367e-08
-4.22248e-07
-4.7174e-08
-4.2662e-07
-3.97641e-08
-4.3015e-07
-3.17588e-08
-4.32755e-07
-2.32227e-08
-4.34363e-07
-1.42249e-08
-4.82341e-09
2.40849e-07
-3.37506e-09
2.39844e-07
-1.00156e-08
2.38189e-07
-1.65215e-08
2.35901e-07
-2.28761e-08
2.33001e-07
-2.90627e-08
2.29511e-07
-3.50652e-08
2.25457e-07
-4.08692e-08
2.20863e-07
-4.64615e-08
2.15756e-07
-5.18305e-08
2.10165e-07
-5.6966e-08
2.04117e-07
-6.18594e-08
1.97642e-07
-6.65035e-08
1.90767e-07
-7.08926e-08
1.83522e-07
-7.50226e-08
1.75935e-07
-7.88909e-08
1.68034e-07
-8.24961e-08
1.59848e-07
-8.58382e-08
1.51402e-07
-8.89185e-08
1.42725e-07
-9.17395e-08
1.33843e-07
-9.43047e-08
1.24779e-07
-9.66188e-08
1.15559e-07
-9.86871e-08
1.06207e-07
-1.00516e-07
9.67456e-08
-1.02112e-07
8.7197e-08
-1.0348e-07
7.75827e-08
-1.04626e-07
6.79234e-08
-1.05559e-07
5.82389e-08
-1.06285e-07
4.85481e-08
-1.06812e-07
3.88691e-08
-1.07149e-07
2.92188e-08
-1.07304e-07
1.96133e-08
-1.07286e-07
1.0068e-08
-1.07103e-07
5.96769e-10
-1.06765e-07
-8.78714e-09
-1.06279e-07
-1.80717e-08
-1.05657e-07
-2.72459e-08
-1.04906e-07
-3.62998e-08
-1.04037e-07
-4.52245e-08
-1.03058e-07
-5.40125e-08
-1.0198e-07
-6.2657e-08
-1.00813e-07
-7.11524e-08
-9.95644e-08
-7.94945e-08
-9.82457e-08
-8.76799e-08
-9.68656e-08
-9.57062e-08
-9.54334e-08
-1.03572e-07
-9.39582e-08
-1.11277e-07
-9.24486e-08
-1.18822e-07
-9.09129e-08
-1.26209e-07
-8.93589e-08
-1.3344e-07
-8.7794e-08
-1.40518e-07
-8.62253e-08
-1.47448e-07
-8.4659e-08
-1.54233e-07
-8.3101e-08
-1.60879e-07
-8.15566e-08
-1.67392e-07
-8.00308e-08
-1.73778e-07
-7.85278e-08
-1.80045e-07
-7.70519e-08
-1.86198e-07
-7.56071e-08
-1.92246e-07
-7.41975e-08
-1.98195e-07
-7.28281e-08
-2.04055e-07
-7.15049e-08
-2.09833e-07
-7.02359e-08
-2.15536e-07
-6.90447e-08
-2.21175e-07
-6.79368e-08
-2.2676e-07
-6.69218e-08
-2.32301e-07
-6.60554e-08
-2.37811e-07
-6.54009e-08
-2.43309e-07
-6.50606e-08
-2.48817e-07
-6.52102e-08
-2.54396e-07
-6.57975e-08
-2.60084e-07
-6.66599e-08
-2.65909e-07
-6.76957e-08
-2.71889e-07
-6.88344e-08
-2.78035e-07
-7.00248e-08
-2.84356e-07
-7.12263e-08
-2.90855e-07
-7.24051e-08
-2.97531e-07
-7.35301e-08
-3.04383e-07
-7.45714e-08
-3.11404e-07
-7.54984e-08
-3.18583e-07
-7.62785e-08
-3.25908e-07
-7.68766e-08
-3.3336e-07
-7.72546e-08
-3.40918e-07
-7.73681e-08
-3.48552e-07
-7.71721e-08
-3.56229e-07
-7.66194e-08
-3.63909e-07
-7.56615e-08
-3.71544e-07
-7.42496e-08
-3.7908e-07
-7.2337e-08
-3.86455e-07
-6.98804e-08
-3.936e-07
-6.68432e-08
-4.00441e-07
-6.31971e-08
-4.06899e-07
-5.89247e-08
-4.1289e-07
-5.40212e-08
-4.18328e-07
-4.84958e-08
-4.23129e-07
-4.23704e-08
-4.27211e-07
-3.56801e-08
-4.30497e-07
-2.84718e-08
-4.32915e-07
-2.08031e-08
-4.34405e-07
-1.27346e-08
-4.31562e-09
2.40859e-07
-3.04568e-09
2.39882e-07
-9.03871e-09
2.38272e-07
-1.49114e-08
2.36045e-07
-2.06494e-08
2.3322e-07
-2.62381e-08
2.29818e-07
-3.16633e-08
2.25861e-07
-3.69122e-08
2.21373e-07
-4.19731e-08
2.16378e-07
-4.68355e-08
2.10902e-07
-5.14901e-08
2.04972e-07
-5.59291e-08
1.98614e-07
-6.01458e-08
1.91856e-07
-6.41348e-08
1.84726e-07
-6.78922e-08
1.7725e-07
-7.14151e-08
1.69456e-07
-7.47022e-08
1.61371e-07
-7.77532e-08
1.53022e-07
-8.0569e-08
1.44434e-07
-8.31515e-08
1.35633e-07
-8.55037e-08
1.26644e-07
-8.76296e-08
1.1749e-07
-8.95338e-08
1.08196e-07
-9.12219e-08
9.87842e-08
-9.26996e-08
8.92758e-08
-9.39716e-08
7.96924e-08
-9.50432e-08
7.00545e-08
-9.59209e-08
6.03815e-08
-9.66117e-08
5.06923e-08
-9.71227e-08
4.10044e-08
-9.74612e-08
3.13349e-08
-9.76346e-08
2.16997e-08
-9.76507e-08
1.21137e-08
-9.75172e-08
2.59112e-09
-9.7242e-08
-6.8551e-09
-9.68333e-08
-1.62129e-08
-9.62992e-08
-2.54712e-08
-9.5648e-08
-3.462e-08
-9.48882e-08
-4.36503e-08
-9.40282e-08
-5.25543e-08
-9.30766e-08
-6.1325e-08
-9.2042e-08
-6.99567e-08
-9.0933e-08
-7.84445e-08
-8.9758e-08
-8.67848e-08
-8.85256e-08
-9.49747e-08
-8.72437e-08
-1.03012e-07
-8.59207e-08
-1.10897e-07
-8.45641e-08
-1.18629e-07
-8.31814e-08
-1.26209e-07
-8.17795e-08
-1.33638e-07
-8.03652e-08
-1.40919e-07
-7.89445e-08
-1.48055e-07
-7.75232e-08
-1.55049e-07
-7.61066e-08
-1.61907e-07
-7.46993e-08
-1.68632e-07
-7.33058e-08
-1.7523e-07
-7.19301e-08
-1.81706e-07
-7.05759e-08
-1.88066e-07
-6.92469e-08
-1.94317e-07
-6.79471e-08
-2.00464e-07
-6.6681e-08
-2.06515e-07
-6.54544e-08
-2.12475e-07
-6.4275e-08
-2.18353e-07
-6.31668e-08
-2.24158e-07
-6.21318e-08
-2.29898e-07
-6.11816e-08
-2.35584e-07
-6.03687e-08
-2.41231e-07
-5.97533e-08
-2.46859e-07
-5.94325e-08
-2.52494e-07
-5.95736e-08
-2.58194e-07
-6.00968e-08
-2.63993e-07
-6.08592e-08
-2.69917e-07
-6.17707e-08
-2.7598e-07
-6.27691e-08
-2.82194e-07
-6.38087e-08
-2.88564e-07
-6.48536e-08
-2.95093e-07
-6.58733e-08
-3.0178e-07
-6.68404e-08
-3.0862e-07
-6.77281e-08
-3.15607e-07
-6.85087e-08
-3.22729e-07
-6.91533e-08
-3.29971e-07
-6.96304e-08
-3.37316e-07
-6.99059e-08
-3.4474e-07
-6.99401e-08
-3.52215e-07
-6.96933e-08
-3.59706e-07
-6.91238e-08
-3.67175e-07
-6.81889e-08
-3.74574e-07
-6.68462e-08
-3.81852e-07
-6.50552e-08
-3.88949e-07
-6.2779e-08
-3.95802e-07
-5.99867e-08
-4.02341e-07
-5.6655e-08
-4.08492e-07
-5.27705e-08
-4.14179e-07
-4.83311e-08
-4.19325e-07
-4.33465e-08
-4.23855e-07
-3.78377e-08
-4.27697e-07
-3.1837e-08
-4.3078e-07
-2.53863e-08
-4.33046e-07
-1.85368e-08
-4.34438e-07
-1.13412e-08
-3.84162e-09
2.40866e-07
-2.72394e-09
2.39912e-07
-8.08426e-09
2.38338e-07
-1.33379e-08
2.36161e-07
-1.84723e-08
2.33398e-07
-2.34748e-08
2.30068e-07
-2.8333e-08
2.26191e-07
-3.30356e-08
2.2179e-07
-3.75722e-08
2.16888e-07
-4.19336e-08
2.1151e-07
-4.61114e-08
2.05679e-07
-5.00985e-08
1.99422e-07
-5.38889e-08
1.92765e-07
-5.74776e-08
1.85734e-07
-6.08609e-08
1.78355e-07
-6.40361e-08
1.70654e-07
-6.70017e-08
1.62658e-07
-6.97573e-08
1.54393e-07
-7.23035e-08
1.45883e-07
-7.46418e-08
1.37154e-07
-7.67748e-08
1.2823e-07
-7.87057e-08
1.19135e-07
-8.04386e-08
1.09891e-07
-8.19784e-08
1.00522e-07
-8.333e-08
9.10475e-08
-8.44975e-08
8.14899e-08
-8.54856e-08
7.18688e-08
-8.63e-08
6.22037e-08
-8.69467e-08
5.25131e-08
-8.74321e-08
4.28145e-08
-8.77626e-08
3.31246e-08
-8.79449e-08
2.34594e-08
-8.79856e-08
1.38337e-08
-8.78917e-08
4.2616e-09
-8.76701e-08
-5.24389e-09
-8.7328e-08
-1.46707e-08
-8.68726e-08
-2.40076e-08
-8.63113e-08
-3.32445e-08
-8.56515e-08
-4.23723e-08
-8.49006e-08
-5.13828e-08
-8.40663e-08
-6.02689e-08
-8.31561e-08
-6.90244e-08
-8.21777e-08
-7.76441e-08
-8.11385e-08
-8.61239e-08
-8.0046e-08
-9.44605e-08
-7.89074e-08
-1.02651e-07
-7.77299e-08
-1.10695e-07
-7.65204e-08
-1.18592e-07
-7.52853e-08
-1.26341e-07
-7.40309e-08
-1.33943e-07
-7.27631e-08
-1.414e-07
-7.14874e-08
-1.48715e-07
-7.02089e-08
-1.55889e-07
-6.89322e-08
-1.62927e-07
-6.76616e-08
-1.69833e-07
-6.64009e-08
-1.76609e-07
-6.51539e-08
-1.83261e-07
-6.39239e-08
-1.89794e-07
-6.27143e-08
-1.96212e-07
-6.15288e-08
-2.02522e-07
-6.03716e-08
-2.08728e-07
-5.92481e-08
-2.14837e-07
-5.81657e-08
-2.20856e-07
-5.71477e-08
-2.26794e-07
-5.61943e-08
-2.32657e-07
-5.53176e-08
-2.38459e-07
-5.45664e-08
-2.44215e-07
-5.39971e-08
-2.49946e-07
-5.37006e-08
-2.55685e-07
-5.38338e-08
-2.61482e-07
-5.42977e-08
-2.67372e-07
-5.49679e-08
-2.73376e-07
-5.57654e-08
-2.79508e-07
-5.66356e-08
-2.85776e-07
-5.75383e-08
-2.92185e-07
-5.84417e-08
-2.98737e-07
-5.9319e-08
-3.05428e-07
-6.01459e-08
-3.12255e-07
-6.08986e-08
-3.19207e-07
-6.15527e-08
-3.26275e-07
-6.20824e-08
-3.33441e-07
-6.24598e-08
-3.40689e-07
-6.26547e-08
-3.47993e-07
-6.26319e-08
-3.55326e-07
-6.23567e-08
-3.62653e-07
-6.17924e-08
-3.69936e-07
-6.09019e-08
-3.77129e-07
-5.96485e-08
-3.84183e-07
-5.79972e-08
-3.91042e-07
-5.59166e-08
-3.97644e-07
-5.33808e-08
-4.03924e-07
-5.03707e-08
-4.09816e-07
-4.6876e-08
-4.15247e-07
-4.28962e-08
-4.2015e-07
-3.84412e-08
-4.24455e-07
-3.35307e-08
-4.28096e-07
-2.81935e-08
-4.31014e-07
-2.24672e-08
-4.33153e-07
-1.63964e-08
-4.34466e-07
-1.00272e-08
-3.39531e-09
2.40872e-07
-2.40842e-09
2.39936e-07
-7.14812e-09
2.38393e-07
-1.17941e-08
2.36256e-07
-1.63356e-08
2.33543e-07
-2.07617e-08
2.30271e-07
-2.50615e-08
2.26461e-07
-2.92253e-08
2.22133e-07
-3.32439e-08
2.17308e-07
-3.71092e-08
2.12011e-07
-4.08139e-08
2.06264e-07
-4.43517e-08
2.00092e-07
-4.77171e-08
1.9352e-07
-5.09056e-08
1.86573e-07
-5.39139e-08
1.79277e-07
-5.67395e-08
1.71656e-07
-5.9381e-08
1.63736e-07
-6.18377e-08
1.55543e-07
-6.41102e-08
1.47101e-07
-6.61995e-08
1.38434e-07
-6.81078e-08
1.29566e-07
-6.98378e-08
1.2052e-07
-7.13932e-08
1.1132e-07
-7.27779e-08
1.01986e-07
-7.39962e-08
9.25403e-08
-7.50519e-08
8.30034e-08
-7.59488e-08
7.33952e-08
-7.66919e-08
6.37349e-08
-7.72865e-08
5.40406e-08
-7.7738e-08
4.433e-08
-7.80521e-08
3.46196e-08
-7.82346e-08
2.49252e-08
-7.82914e-08
1.52617e-08
-7.82284e-08
5.64315e-09
-7.80517e-08
-3.91737e-09
-7.77677e-08
-1.34077e-08
-7.73825e-08
-2.28165e-08
-7.69027e-08
-3.21336e-08
-7.63346e-08
-4.13495e-08
-7.56849e-08
-5.04559e-08
-7.49601e-08
-5.94453e-08
-7.4167e-08
-6.83111e-08
-7.33121e-08
-7.70479e-08
-7.2402e-08
-8.5651e-08
-7.14431e-08
-9.41166e-08
-7.04421e-08
-1.02442e-07
-6.94049e-08
-1.10625e-07
-6.83377e-08
-1.18664e-07
-6.72462e-08
-1.26559e-07
-6.6136e-08
-1.3431e-07
-6.50121e-08
-1.41919e-07