/*--------------------------------*- C++ -*----------------------------------*\
| =========                 |                                                 |
| \\      /  F ield         | OpenFOAM: The Open Source CFD Toolbox           |
|  \\    /   O peration     | Version:  2.3.x                                 |
|   \\  /    A nd           | Web:      www.OpenFOAM.org                      |
|    \\/     M anipulation  |                                                 |
\*---------------------------------------------------------------------------*/
FoamFile
{
    version     2.0;
    format      ascii;
    class       volScalarField;
    location    "0.5";
    object      T;
}
// * * * * * * * * * * * * * * * * * * * * * * * * * * * * * * * * * * * * * //

dimensions      [0 0 0 1 0 0 0];

internalField   nonuniform List<scalar> 
4000
(
801.393
804.467
807.86
811.604
815.732
820.279
825.279
830.772
836.796
843.391
850.596
858.454
867.005
876.289
886.347
897.216
908.935
921.538
935.057
949.523
964.961
981.392
998.835
1017.32
1036.88
1057.53
1079.3
1102.17
1126.15
1151.23
1177.41
1204.68
1233.01
1262.4
1292.81
1324.22
1356.58
1389.86
1424.02
1459
1494.76
1531.23
1568.36
1606.08
1644.32
1683.02
1722.09
1761.47
1801.07
1840.82
1880.63
1920.42
1960.11
1999.61
2038.82
2077.66
2116.03
2153.8
2190.84
2226.98
2262
2295.59
2327.22
2355.73
2380.88
2401.87
2415.89
2419.69
2408.17
2373.44
2323.19
2263.1
2196.86
2126.89
2054.82
1981.77
1908.49
1835.57
1763.42
1692.39
1622.77
1554.84
1488.83
1425.03
1363.66
1304.92
1249.01
1196.08
1146.27
1099.69
1056.42
1016.5
979.903
946.585
916.445
889.354
865.151
843.627
824.491
807.434
801.386
804.446
807.823
811.549
815.658
820.183
825.162
830.63
836.628
843.195
850.37
858.196
866.714
875.962
885.983
896.814
908.493
921.054
934.532
948.955
964.351
980.741
998.144
1016.59
1036.12
1056.75
1078.47
1101.29
1125.24
1150.29
1176.45
1203.7
1232.02
1261.4
1291.81
1323.22
1355.59
1388.89
1423.08
1458.09
1493.89
1530.4
1567.58
1605.36
1643.67
1682.43
1721.58
1761.03
1800.72
1840.55
1880.45
1920.34
1960.12
1999.71
2039.02
2077.96
2116.41
2154.27
2191.4
2227.62
2262.71
2296.35
2328.01
2356.54
2381.71
2402.6
2416.43
2419.85
2407.71
2372.27
2321.55
2261.13
2194.65
2124.51
2052.32
1979.16
1905.81
1832.82
1760.63
1689.57
1619.95
1552.03
1486.06
1422.31
1361.02
1302.38
1246.59
1193.8
1144.15
1097.75
1054.67
1014.95
978.559
945.448
915.511
888.618
864.603
843.253
824.278
807.368
801.377
804.416
807.77
811.47
815.55
820.044
824.988
830.419
836.377
842.9
850.03
857.807
866.273
875.467
885.431
896.202
907.82
920.318
933.731
948.088
963.416
979.739
997.073
1015.45
1034.9
1055.46
1077.13
1099.91
1123.81
1148.82
1174.93
1202.15
1230.45
1259.81
1290.22
1321.63
1354.01
1387.34
1421.55
1456.61
1492.47
1529.05
1566.31
1604.18
1642.59
1681.47
1720.74
1760.33
1800.15
1840.13
1880.18
1920.22
1960.16
1999.92
2039.4
2078.5
2117.12
2155.14
2192.42
2228.78
2263.98
2297.7
2329.35
2357.8
2383.4
2403.99
2417.34
2420
2406.62
2370.01
2318.5
2257.54
2190.67
2120.25
2047.84
1974.52
1901.05
1827.99
1755.75
1684.67
1615.07
1547.2
1481.31
1417.7
1356.57
1298.13
1242.57
1190.05
1140.7
1094.62
1051.87
1012.49
976.451
943.683
914.078
887.501
863.78
842.698
823.964
807.272
801.366
804.381
807.708
811.379
815.426
819.884
824.788
830.176
836.087
842.56
849.636
857.356
865.761
874.892
884.789
895.491
907.037
919.461
932.798
947.078
962.329
978.575
995.834
1014.14
1033.52
1054
1075.59
1098.3
1122.13
1147.08
1173.15
1200.32
1228.59
1257.93
1288.32
1319.73
1352.13
1385.48
1419.74
1454.85
1490.77
1527.44
1564.8
1602.77
1641.31
1680.32
1719.74
1759.49
1799.5
1839.66
1879.91
1920.15
1960.31
2000.27
2039.97
2079.29
2118.13
2156.36
2193.84
2230.38
2265.75
2299.6
2331.28
2359.73
2385.25
2405.55
2418.3
2419.91
2404.77
2366.83
2314.38
2252.76
2185.41
2114.63
2041.96
1968.45
1894.85
1821.7
1749.42
1678.36
1608.8
1541.03
1475.29
1411.87
1350.98
1292.82
1237.59
1185.42
1136.46
1090.79
1048.47
1009.53
973.917
941.57
912.369
886.171
862.8
842.035
823.589
807.157
801.355
804.346
807.646
811.286
815.3
819.72
824.583
829.927
835.789
842.21
849.231
856.891
865.233
874.297
884.124
894.753
906.223
918.569
931.826
946.026
961.195
977.359
994.538
1012.76
1032.08
1052.48
1073.98
1096.61
1120.37
1145.26
1171.28
1198.4
1226.64
1255.95
1286.33
1317.74
1350.15
1383.53
1417.82
1453
1488.99
1525.75
1563.21
1601.31
1639.99
1679.15
1718.75
1758.68
1798.88
1839.25
1879.72
1920.19
1960.58
2000.79
2040.73
2080.29
2119.38
2157.85
2195.56
2232.31
2267.86
2301.85
2333.54
2361.97
2387.32
2407.24
2419.26
2419.61
2402.39
2363.01
2309.55
2247.19
2179.31
2108.14
2035.19
1961.48
1887.74
1814.52
1742.22
1671.19
1601.72
1534.08
1468.54
1405.36
1344.77
1286.96
1232.1
1180.36
1131.84
1086.64
1044.8
1006.33
971.2
939.31
910.544
884.752
861.754
841.329
823.189
807.035
801.345
804.311
807.585
811.196
815.176
819.561
824.384
829.684
835.5
841.87
848.836
856.438
864.718
873.716
883.474
894.031
905.426
917.695
930.873
944.991
960.079
976.161
993.257
1011.39
1030.62
1050.94
1072.38
1094.94
1118.64
1143.47
1169.43
1196.51
1224.71
1254
1284.36
1315.77
1348.2
1381.61
1415.95
1451.18
1487.25
1524.1
1561.68
1599.91
1638.73
1678.06
1717.84
1757.96
1798.36
1838.95
1879.64
1920.35
1960.99
2001.45
2041.65
2081.48
2120.81
2159.53
2197.48
2234.45
2270.18
2304.3
2335.99
2364.36
2389.52
2409
2420.22
2419.21
2399.77
2358.86
2304.33
2241.21
2172.78
2101.21
2027.97
1954.06
1880.19
1806.9
1734.6
1663.63
1594.27
1526.8
1461.48
1398.59
1338.33
1280.89
1226.45
1175.16
1127.12
1082.41
1041.07
1003.1
968.451
937.028
908.702
883.32
860.698
840.615
822.784
806.911
801.334
804.278
807.527
811.11
815.06
819.411
824.197
829.457
835.228
841.551
848.465
856.012
864.233
873.169
882.861
893.35
904.674
916.869
929.971
944.013
959.023
975.029
992.05
1010.13
1029.26
1049.5
1070.87
1093.36
1116.99
1141.76
1167.67
1194.72
1222.88
1252.15
1282.51
1313.92
1346.36
1379.8
1414.19
1449.48
1485.63
1522.58
1560.27
1598.63
1637.59
1677.08
1717.03
1757.35
1797.96
1838.77
1879.7
1920.65
1961.53
2002.25
2042.7
2082.78
2122.38
2161.34
2199.51
2236.69
2272.6
2306.85
2338.5
2366.8
2391.74
2410.76
2421.15
2418.76
2397.05
2354.6
2299
2235.11
2166.13
2094.16
2020.63
1946.52
1872.55
1799.21
1726.92
1656.02
1586.79
1519.51
1454.44
1391.84
1331.93
1274.89
1220.88
1170.04
1122.48
1078.26
1037.42
999.943
965.773
934.806
906.91
881.927
859.67
839.92
822.391
806.79
801.325
804.248
807.474
811.032
814.954
819.273
824.025
829.248
834.978
841.257
848.124
855.62
863.786
872.665
882.297
892.723
903.98
916.107
929.139
943.109
958.046
973.977
990.923
1008.92
1027.99
1048.16
1069.46
1091.9
1115.47
1140.19
1166.06
1193.07
1221.2
1250.46
1280.81
1312.23
1344.69
1378.16
1412.59
1447.95
1484.18
1521.22
1559.02
1597.5
1636.61
1676.27
1716.39
1756.89
1797.7
1838.72
1879.88
1921.06
1962.18
2003.14
2043.84
2084.17
2124
2163.2
2201.59
2238.96
2275.03
2309.39
2340.98
2369.19
2393.91
2412.46
2422.04
2418.27
2394.34
2350.38
2293.72
2229.09
2159.57
2087.22
2013.42
1939.14
1865.06
1791.69
1719.43
1648.61
1579.53
1512.44
1447.63
1385.34
1325.77
1269.12
1215.54
1165.15
1118.05
1074.32
1033.95
996.943
963.229
932.696
905.209
880.606
858.695
839.26
822.017
806.675
801.316
804.221
807.426
810.961
814.857
819.148
823.87
829.059
834.753
840.991
847.815
855.265
863.383
872.21
881.787
892.155
903.352
915.417
928.386
942.291
957.164
973.032
989.925
1007.84
1026.85
1046.96
1068.2
1090.57
1114.1
1138.77
1164.6
1191.58
1219.69
1248.93
1279.28
1310.71
1343.19
1376.7
1411.18
1446.6
1482.9
1520.04
1557.94
1596.55
1635.79
1675.6
1715.88
1756.57
1797.57
1838.79
1880.15
1921.56
1962.9
2004.1
2045.03
2085.58
2125.64
2165.05
2203.64
2241.19
2277.39
2311.84
2343.34
2371.48
2395.97
2414.07
2422.85
2417.77
2391.71
2346.31
2288.65
2223.31
2153.29
2080.58
2006.54
1932.1
1857.93
1784.54
1712.31
1641.59
1572.65
1505.75
1441.2
1379.21
1319.98
1263.71
1210.53
1160.57
1113.92
1070.63
1030.71
994.149
960.861
930.733
903.627
879.376
857.788
838.646
821.669
806.569
801.309
804.196
807.383
810.897
814.77
819.037
823.731
828.89
834.551
840.754
847.54
854.949
863.023
871.803
881.331
891.648
902.792
914.801
927.713
941.56
956.372
972.178
989.005
1006.87
1025.82
1045.88
1067.07
1089.39
1112.87
1137.51
1163.31
1190.26
1218.36
1247.59
1277.94
1309.38
1341.88
1375.42
1409.95
1445.43
1481.81
1519.03
1557.04
1595.76
1635.14
1675.08
1715.52
1756.37
1797.54
1838.96
1880.51
1922.12
1963.67
2005.08
2046.22
2086.98
2127.24
2166.85
2205.62
2243.33
2279.66
2314.19
2345.6
2373.64
2397.9
2415.57
2423.59
2417.26
2389.22
2342.46
2283.87
2217.88
2147.39
2074.36
2000.09
1925.51
1851.27
1777.87
1705.69
1635.06
1566.26
1499.56
1435.25
1373.54
1314.64
1258.72
1205.92
1156.36
1110.12
1067.25
1027.75
991.589
958.692
928.936
902.178
878.25
856.958
838.084
821.35
806.471
801.302
804.175
807.344
810.84
814.694
818.938
823.608
828.741
834.373
840.545
847.297
854.67
862.706
871.445
880.93
891.201
902.298
914.259
927.121
940.917
955.68
971.441
988.211
1006.03
1024.92
1044.93
1066.07
1088.36
1111.8
1136.41
1162.18
1189.11
1217.19
1246.42
1276.77
1308.22
1340.75
1374.32
1408.9
1444.44
1480.88
1518.19
1556.29
1595.11
1634.61
1674.68
1715.26
1756.27
1797.61
1839.19
1880.92
1922.71
1964.46
2006.05
2047.38
2088.34
2128.78
2168.56
2207.49
2245.33
2281.78
2316.38
2347.68
2375.63
2399.68
2416.93
2424.25
2416.77
2386.89
2338.9
2279.46
2212.87
2141.96
2068.63
1994.17
1919.47
1845.17
1771.76
1699.63
1629.09
1560.44
1493.92
1429.84
1368.4
1309.79
1254.2
1201.75
1152.55
1106.69
1064.19
1025.07
989.279
956.736
927.315
900.871
877.234
856.209
837.577
821.062
806.383
801.296
804.156
807.311
810.791
814.627
818.852
823.501
828.61
834.218
840.363
847.086
854.427
862.429
871.133
880.58
890.812
901.867
913.786
926.603
940.355
955.07
970.783
987.512
1005.29
1024.14
1044.11
1065.21
1087.46
1110.88
1135.45
1161.2
1188.11
1216.19
1245.41
1275.77
1307.24
1339.79
1373.4
1408.02
1443.6
1480.12
1517.5
1555.68
1594.61
1634.21
1674.4
1715.11
1756.25
1797.73
1839.47
1881.36
1923.32
1965.23
2006.99
2048.49
2089.61
2130.21
2170.14
2209.21
2247.17
2283.7
2318.35
2349.59
2377.44
2401.28
2418.15
2424.82
2416.29
2384.76
2335.66
2275.45
2208.32
2137.04
2063.46
1988.82
1914.01
1839.67
1766.26
1694.18
1623.73
1555.21
1488.87
1424.99
1363.79
1305.46
1250.16
1198.02
1149.16
1103.63
1061.47
1022.69
987.223
954.995
925.873
899.709
876.331
855.543
837.127
820.807
806.305
801.291
804.139
807.282
810.749
814.569
818.778
823.409
828.498
834.084
840.206
846.903
854.218
862.191
870.864
880.279
890.477
901.498
913.38
926.161
939.875
954.557
970.227
986.917
1004.65
1023.47
1043.41
1064.48
1086.7
1110.08
1134.64
1160.37
1187.27
1215.34
1244.56
1274.93
1306.41
1338.98
1372.62
1407.28
1442.92
1479.49
1516.93
1555.2
1594.21
1633.91
1674.21
1715.03
1756.29
1797.9
1839.77
1881.81
1923.9
1965.96
2007.87
2049.51
2090.77
2131.51
2171.57
2210.76
2248.82
2285.42
2320.1
2351.31
2379.07
2402.72
2419.24
2425.32
2415.84
2382.85
2332.76
2271.87
2204.27
2132.67
2058.86
1984.07
1909.18
1834.8
1761.4
1689.36
1619
1550.6
1484.41
1420.72
1359.74
1301.65
1246.61
1194.75
1146.18
1100.94
1059.09
1020.6
985.422
953.47
924.61
898.691
875.539
854.959
836.731
820.583
806.236
801.287
804.125
807.258
810.712
814.52
818.715
823.33
828.403
833.97
840.072
846.748
854.04
861.989
870.636
880.024
890.193
901.184
913.035
925.783
939.464
954.112
969.752
986.412
1004.12
1022.91
1042.81
1063.86
1086.05
1109.42
1133.96
1159.67
1186.56
1214.63
1243.85
1274.23
1305.72
1338.32
1371.98
1406.68
1442.36
1478.98
1516.49
1554.82
1593.91
1633.69
1674.08
1715
1756.37
1798.1
1840.08
1882.24
1924.46
1966.64
2008.67
2050.44
2091.82
2132.68
2172.84
2212.12
2250.27
2286.93
2321.63
2352.82
2380.49
2403.97
2420.17
2425.74
2415.43
2381.16
2330.21
2268.73
2200.73
2128.84
2054.84
1979.94
1904.97
1830.56
1757.17
1685.18
1614.89
1546.6
1480.55
1417.03
1356.24
1298.36
1243.55
1191.93
1143.6
1098.63
1057.03
1018.8
983.869
952.155
923.521
897.813
874.857
854.456
836.391
820.389
806.177
801.283
804.114
807.237
810.682
814.479
818.662
823.265
828.323
833.876
839.961
846.619
853.892
861.82
870.446
879.811
889.957
900.923
912.748
925.471
939.126
953.746
969.36
985.994
1003.67
1022.44
1042.32
1063.34
1085.52
1108.87
1133.39
1159.1
1185.98
1214.04
1243.27
1273.65
1305.16
1337.78
1371.47
1406.19
1441.91
1478.58
1516.14
1554.53
1593.69
1633.54
1674.01
1715.01
1756.47
1798.29
1840.38
1882.63
1924.96
1967.24
2009.38
2051.25
2092.74
2133.69
2173.95
2213.31
2251.51
2288.21
2322.94
2354.1
2381.69
2405.01
2420.95
2426.08
2415.07
2379.7
2328.01
2266.04
2197.7
2125.58
2051.42
1976.41
1901.38
1826.95
1753.57
1681.62
1611.41
1543.2
1477.28
1413.9
1353.27
1295.57
1240.95
1189.54
1141.43
1096.67
1055.29
1017.27
982.558
951.045
922.601
897.072
874.281
854.031
836.103
820.226
806.127
801.28
804.104
807.22
810.657
814.446
818.619
823.211
828.258
833.798
839.87
846.514
853.772
861.684
870.292
879.639
889.765
900.711
912.516
925.218
938.853
953.45
969.042
985.655
1003.32
1022.06
1041.92
1062.93
1085.09
1108.42
1132.94
1158.63
1185.52
1213.58
1242.81
1273.19
1304.72
1337.35
1371.06
1405.81
1441.56
1478.27
1515.87
1554.31
1593.52
1633.43
1673.97
1715.05
1756.58
1798.47
1840.64
1882.98
1925.39
1967.76
2009.99
2051.95
2093.51
2134.54
2174.87
2214.29
2252.55
2289.29
2324.02
2355.15
2382.67
2405.84
2421.53
2426.24
2414.56
2378.37
2326.13
2263.77
2195.16
2122.85
2048.57
1973.48
1898.41
1823.97
1750.6
1678.69
1608.53
1540.4
1474.58
1411.32
1350.83
1293.28
1238.82
1187.58
1139.64
1095.06
1053.87
1016.02
981.48
950.133
921.846
896.464
873.808
853.682
835.867
820.092
806.086
801.278
804.097
807.207
810.638
814.42
818.586
823.169
828.208
833.738
839.799
846.432
853.677
861.576
870.171
879.503
889.615
900.545
912.334
925.019
938.636
953.218
968.794
985.391
1003.04
1021.76
1041.61
1062.6
1084.76
1108.08
1132.58
1158.28
1185.15
1213.22
1242.45
1272.84
1304.37
1337.02
1370.75
1405.52
1441.3
1478.04
1515.67
1554.15
1593.41
1633.37
1673.95
1715.09
1756.68
1798.64
1840.87
1883.27
1925.75
1968.19
2010.48
2052.51
2094.14
2135.23
2175.61
2215.09
2253.38
2290.14
2324.88
2355.99
2383.44
2406.48
2421.94
2426.29
2414.03
2377.23
2324.57
2261.93
2193.12
2120.68
2046.3
1971.15
1896.05
1821.6
1748.24
1676.36
1606.25
1538.18
1472.44
1409.28
1348.89
1291.46
1237.13
1186.02
1138.23
1093.79
1052.74
1015.04
980.629
949.413
921.25
895.983
873.434
853.407
835.681
819.987
806.054
801.276
804.091
807.198
810.624
814.401
818.561
823.138
828.17
833.693
839.747
846.372
853.608
861.497
870.082
879.404
889.504
900.423
912.2
924.873
938.478
953.047
968.611
985.196
1002.83
1021.55
1041.39
1062.37
1084.51
1107.83
1132.33
1158.01
1184.89
1212.95
1242.19
1272.58
1304.12
1336.78
1370.52
1405.31
1441.11
1477.87
1515.53
1554.04
1593.33
1633.33
1673.95
1715.12
1756.76
1798.76
1841.04
1883.5
1926.02
1968.52
2010.86
2052.93
2094.61
2135.75
2176.17
2215.68
2254
2290.78
2325.52
2356.6
2384
2406.94
2422.23
2426.29
2413.57
2376.34
2323.39
2260.54
2191.59
2119.05
2044.6
1969.41
1894.29
1819.83
1746.48
1674.62
1604.54
1536.53
1470.85
1407.76
1347.45
1290.11
1235.88
1184.87
1137.18
1092.85
1051.9
1014.3
979.997
948.878
920.807
895.626
873.157
853.202
835.542
819.908
806.03
801.275
804.088
807.191
810.614
814.388
818.544
823.118
828.146
833.664
839.713
846.332
853.562
861.445
870.024
879.338
889.431
900.342
912.112
924.777
938.374
952.935
968.491
985.069
1002.7
1021.4
1041.24
1062.21
1084.35
1107.66
1132.16
1157.84
1184.72
1212.78
1242.02
1272.42
1303.96
1336.62
1370.38
1405.18
1440.99
1477.76
1515.45
1553.97
1593.28
1633.3
1673.95
1715.15
1756.82
1798.85
1841.16
1883.65
1926.21
1968.74
2011.11
2053.22
2094.93
2136.1
2176.55
2216.08
2254.42
2291.21
2325.94
2357.01
2384.36
2407.23
2422.4
2426.27
2413.24
2375.73
2322.59
2259.61
2190.57
2117.96
2043.47
1968.25
1893.12
1818.65
1745.32
1673.47
1603.42
1535.43
1469.79
1406.75
1346.5
1289.21
1235.04
1184.11
1136.48
1092.22
1051.34
1013.82
979.579
948.524
920.514
895.39
872.973
853.067
835.451
819.856
806.014
801.274
804.086
807.188
810.61
814.382
818.536
823.108
828.133
833.65
839.696
846.312
853.54
861.42
869.995
879.306
889.395
900.303
912.069
924.73
938.323
952.88
968.433
985.006
1002.63
1021.33
1041.16
1062.14
1084.27
1107.58
1132.08
1157.76
1184.63
1212.69
1241.93
1272.34
1303.88
1336.55
1370.3
1405.11
1440.93
1477.71
1515.4
1553.94
1593.26
1633.29
1673.96
1715.17
1756.85
1798.9
1841.23
1883.73
1926.31
1968.85
2011.24
2053.36
2095.09
2136.27
2176.74
2216.28
2254.63
2291.42
2326.15
2357.21
2384.54
2407.38
2422.49
2426.26
2413.07
2375.43
2322.19
2259.14
2190.06
2117.42
2042.91
1967.68
1892.54
1818.07
1744.74
1672.9
1602.86
1534.89
1469.27
1406.25
1346.03
1288.77
1234.63
1183.73
1136.14
1091.91
1051.07
1013.58
979.372
948.349
920.369
895.273
872.882
853
835.405
819.83
806.006
801.274
804.086
807.188
810.61
814.382
818.536
823.108
828.133
833.65
839.696
846.312
853.54
861.42
869.995
879.306
889.395
900.303
912.069
924.73
938.323
952.88
968.433
985.006
1002.63
1021.33
1041.16
1062.14
1084.27
1107.58
1132.08
1157.76
1184.63
1212.69
1241.93
1272.34
1303.88
1336.55
1370.3
1405.11
1440.93
1477.71
1515.4
1553.94
1593.26
1633.29
1673.96
1715.17
1756.85
1798.9
1841.23
1883.73
1926.31
1968.85
2011.24
2053.36
2095.09
2136.27
2176.74
2216.28
2254.63
2291.42
2326.15
2357.21
2384.54
2407.38
2422.49
2426.26
2413.07
2375.43
2322.19
2259.14
2190.06
2117.42
2042.91
1967.68
1892.54
1818.07
1744.74
1672.9
1602.86
1534.89
1469.27
1406.25
1346.03
1288.77
1234.63
1183.73
1136.14
1091.91
1051.07
1013.58
979.372
948.349
920.369
895.273
872.882
853
835.405
819.83
806.006
801.275
804.088
807.191
810.614
814.388
818.544
823.118
828.146
833.664
839.713
846.332
853.562
861.445
870.024
879.338
889.431
900.343
912.112
924.777
938.374
952.935
968.491
985.069
1002.7
1021.4
1041.24
1062.21
1084.35
1107.66
1132.16
1157.84
1184.72
1212.78
1242.02
1272.42
1303.96
1336.62
1370.38
1405.18
1440.99
1477.76
1515.45
1553.97
1593.28
1633.3
1673.95
1715.15
1756.82
1798.85
1841.16
1883.65
1926.21
1968.74
2011.11
2053.22
2094.93
2136.1
2176.55
2216.08
2254.42
2291.21
2325.94
2357.01
2384.36
2407.23
2422.4
2426.27
2413.24
2375.73
2322.59
2259.61
2190.57
2117.96
2043.47
1968.25
1893.12
1818.65
1745.32
1673.47
1603.42
1535.44
1469.79
1406.75
1346.5
1289.21
1235.05
1184.11
1136.48
1092.22
1051.34
1013.82
979.579
948.524
920.514
895.39
872.973
853.067
835.451
819.856
806.014
801.276
804.091
807.198
810.624
814.401
818.561
823.138
828.17
833.693
839.747
846.372
853.608
861.497
870.082
879.404
889.504
900.423
912.2
924.873
938.478
953.047
968.611
985.197
1002.83
1021.55
1041.39
1062.37
1084.51
1107.83
1132.33
1158.01
1184.89
1212.95
1242.19
1272.58
1304.12
1336.78
1370.52
1405.31
1441.11
1477.87
1515.53
1554.04
1593.33
1633.33
1673.95
1715.12
1756.76
1798.76
1841.04
1883.5
1926.02
1968.52
2010.86
2052.93
2094.61
2135.75
2176.17
2215.68
2254
2290.78
2325.52
2356.6
2384
2406.94
2422.23
2426.29
2413.57
2376.34
2323.39
2260.54
2191.59
2119.05
2044.6
1969.41
1894.29
1819.83
1746.48
1674.62
1604.55
1536.53
1470.85
1407.76
1347.45
1290.11
1235.88
1184.87
1137.18
1092.85
1051.9
1014.3
979.997
948.878
920.807
895.626
873.157
853.202
835.542
819.908
806.03
801.278
804.097
807.207
810.638
814.42
818.586
823.169
828.208
833.738
839.799
846.432
853.677
861.576
870.171
879.503
889.615
900.545
912.334
925.019
938.636
953.218
968.794
985.391
1003.04
1021.76
1041.61
1062.6
1084.76
1108.08
1132.58
1158.28
1185.15
1213.22
1242.45
1272.84
1304.37
1337.02
1370.75
1405.52
1441.3
1478.04
1515.67
1554.15
1593.41
1633.37
1673.95
1715.09
1756.68
1798.64
1840.87
1883.27
1925.75
1968.19
2010.48
2052.51
2094.14
2135.23
2175.61
2215.09
2253.38
2290.14
2324.88
2355.99
2383.44
2406.48
2421.94
2426.29
2414.03
2377.23
2324.57
2261.93
2193.12
2120.68
2046.3
1971.15
1896.05
1821.6
1748.24
1676.36
1606.25
1538.18
1472.44
1409.28
1348.89
1291.46
1237.13
1186.02
1138.23
1093.79
1052.74
1015.04
980.629
949.413
921.25
895.983
873.434
853.407
835.681
819.987
806.054
801.28
804.104
807.22
810.657
814.446
818.619
823.211
828.258
833.798
839.87
846.514
853.772
861.684
870.292
879.639
889.765
900.711
912.516
925.218
938.853
953.45
969.042
985.655
1003.32
1022.06
1041.92
1062.93
1085.09
1108.42
1132.94
1158.63
1185.52
1213.58
1242.81
1273.19
1304.72
1337.35
1371.06
1405.81
1441.56
1478.27
1515.87
1554.31
1593.52
1633.43
1673.97
1715.05
1756.58
1798.47
1840.64
1882.98
1925.39
1967.76
2009.99
2051.95
2093.51
2134.54
2174.87
2214.29
2252.55
2289.29
2324.02
2355.15
2382.67
2405.84
2421.53
2426.24
2414.56
2378.37
2326.13
2263.77
2195.16
2122.86
2048.57
1973.48
1898.41
1823.97
1750.6
1678.69
1608.53
1540.4
1474.58
1411.32
1350.83
1293.28
1238.82
1187.58
1139.64
1095.06
1053.87
1016.02
981.481
950.134
921.846
896.464
873.808
853.682
835.867
820.093
806.086
801.283
804.114
807.237
810.682
814.479
818.662
823.265
828.323
833.876
839.961
846.619
853.892
861.82
870.446
879.811
889.957
900.923
912.748
925.471
939.126
953.746
969.36
985.994
1003.67
1022.44
1042.32
1063.34
1085.52
1108.87
1133.39
1159.1
1185.98
1214.04
1243.27
1273.65
1305.16
1337.78
1371.47
1406.19
1441.91
1478.58
1516.14
1554.53
1593.69
1633.54
1674.01
1715.01
1756.47
1798.29
1840.38
1882.63
1924.96
1967.24
2009.38
2051.25
2092.74
2133.69
2173.95
2213.31
2251.51
2288.21
2322.94
2354.1
2381.69
2405.01
2420.95
2426.08
2415.07
2379.7
2328.01
2266.04
2197.7
2125.58
2051.42
1976.41
1901.38
1826.95
1753.58
1681.62
1611.41
1543.2
1477.28
1413.9
1353.27
1295.57
1240.95
1189.54
1141.43
1096.67
1055.29
1017.27
982.558
951.046
922.602
897.072
874.281
854.031
836.104
820.226
806.127
801.287
804.125
807.258
810.712
814.52
818.715
823.33
828.403
833.97
840.072
846.748
854.04
861.989
870.636
880.024
890.193
901.184
913.035
925.783
939.465
954.112
969.752
986.412
1004.12
1022.91
1042.81
1063.86
1086.05
1109.42
1133.96
1159.67
1186.56
1214.63
1243.85
1274.23
1305.72
1338.32
1371.98
1406.68
1442.36
1478.98
1516.49
1554.82
1593.91
1633.69
1674.08
1715
1756.37
1798.1
1840.08
1882.24
1924.46
1966.64
2008.67
2050.44
2091.82
2132.68
2172.85
2212.13
2250.27
2286.93
2321.63
2352.82
2380.49
2403.97
2420.17
2425.74
2415.44
2381.16
2330.21
2268.73
2200.73
2128.84
2054.84
1979.94
1904.97
1830.56
1757.17
1685.18
1614.9
1546.6
1480.55
1417.03
1356.24
1298.36
1243.55
1191.93
1143.6
1098.63
1057.03
1018.8
983.869
952.156
923.521
897.813
874.857
854.456
836.391
820.39
806.177
801.291
804.139
807.282
810.749
814.569
818.778
823.409
828.498
834.084
840.206
846.903
854.218
862.191
870.864
880.279
890.477
901.498
913.38
926.161
939.876
954.557
970.227
986.918
1004.65
1023.47
1043.41
1064.48
1086.7
1110.08
1134.64
1160.37
1187.27
1215.34
1244.56
1274.93
1306.41
1338.99
1372.62
1407.28
1442.92
1479.49
1516.93
1555.2
1594.21
1633.91
1674.21
1715.03
1756.29
1797.9
1839.77
1881.81
1923.9
1965.96
2007.87
2049.51
2090.78
2131.51
2171.57
2210.76
2248.82
2285.42
2320.1
2351.31
2379.07
2402.72
2419.24
2425.32
2415.84
2382.85
2332.76
2271.87
2204.27
2132.67
2058.86
1984.08
1909.18
1834.8
1761.4
1689.36
1619
1550.6
1484.41
1420.72
1359.74
1301.65
1246.61
1194.75
1146.18
1100.94
1059.09
1020.6
985.422
953.47
924.61
898.691
875.54
854.959
836.732
820.583
806.236
801.296
804.156
807.311
810.791
814.627
818.852
823.501
828.61
834.218
840.363
847.086
854.427
862.429
871.133
880.58
890.812
901.868
913.786
926.604
940.355
955.071
970.783
987.513
1005.29
1024.14
1044.11
1065.21
1087.46
1110.88
1135.45
1161.2
1188.11
1216.19
1245.41
1275.77
1307.24
1339.79
1373.4
1408.02
1443.61
1480.12
1517.5
1555.68
1594.61
1634.21
1674.4
1715.11
1756.25
1797.74
1839.47
1881.36
1923.32
1965.23
2006.99
2048.49
2089.61
2130.21
2170.14
2209.21
2247.17
2283.7
2318.35
2349.59
2377.44
2401.28
2418.15
2424.82
2416.29
2384.76
2335.66
2275.45
2208.32
2137.04
2063.46
1988.82
1914.02
1839.67
1766.27
1694.18
1623.74
1555.21
1488.87
1424.99
1363.8
1305.46
1250.16
1198.02
1149.16
1103.63
1061.47
1022.69
987.224
954.996
925.873
899.709
876.331
855.543
837.127
820.807
806.305
801.302
804.175
807.344
810.84
814.694
818.938
823.608
828.741
834.373
840.545
847.297
854.67
862.706
871.445
880.93
891.201
902.298
914.259
927.121
940.917
955.68
971.442
988.211
1006.03
1024.92
1044.93
1066.07
1088.36
1111.8
1136.41
1162.18
1189.11
1217.19
1246.42
1276.77
1308.22
1340.75
1374.32
1408.9
1444.44
1480.88
1518.19
1556.29
1595.11
1634.61
1674.68
1715.26
1756.27
1797.61
1839.19
1880.92
1922.71
1964.46
2006.05
2047.38
2088.34
2128.78
2168.56
2207.49
2245.33
2281.78
2316.38
2347.68
2375.63
2399.68
2416.93
2424.25
2416.77
2386.89
2338.9
2279.46
2212.87
2141.96
2068.63
1994.17
1919.47
1845.17
1771.76
1699.63
1629.09
1560.44
1493.92
1429.84
1368.4
1309.8
1254.2
1201.75
1152.55
1106.69
1064.19
1025.07
989.279
956.736
927.315
900.871
877.235
856.209
837.578
821.062
806.383
801.309
804.196
807.383
810.897
814.77
819.037
823.731
828.89
834.551
840.754
847.54
854.949
863.023
871.803
881.332
891.648
902.792
914.802
927.713
941.56
956.372
972.178
989.005
1006.87
1025.82
1045.88
1067.07
1089.39
1112.87
1137.51
1163.31
1190.26
1218.36
1247.59
1277.94
1309.38
1341.88
1375.42
1409.95
1445.43
1481.81
1519.03
1557.04
1595.76
1635.14
1675.08
1715.52
1756.37
1797.54
1838.96
1880.51
1922.12
1963.67
2005.08
2046.22
2086.98
2127.24
2166.85
2205.62
2243.33
2279.66
2314.19
2345.6
2373.64
2397.9
2415.57
2423.59
2417.26
2389.22
2342.47
2283.87
2217.88
2147.39
2074.36
2000.09
1925.51
1851.27
1777.87
1705.69
1635.06
1566.26
1499.56
1435.25
1373.54
1314.64
1258.72
1205.92
1156.36
1110.12
1067.25
1027.75
991.59
958.693
928.937
902.178
878.25
856.958
838.085
821.35
806.471
801.316
804.221
807.426
810.961
814.857
819.148
823.87
829.059
834.753
840.991
847.815
855.265
863.383
872.21
881.787
892.155
903.352
915.418
928.386
942.291
957.164
973.032
989.925
1007.84
1026.85
1046.96
1068.2
1090.57
1114.1
1138.77
1164.6
1191.58
1219.69
1248.93
1279.28
1310.71
1343.19
1376.7
1411.18
1446.6
1482.9
1520.04
1557.94
1596.55
1635.79
1675.6
1715.88
1756.57
1797.57
1838.79
1880.15
1921.56
1962.9
2004.1
2045.03
2085.58
2125.64
2165.05
2203.64
2241.19
2277.39
2311.84
2343.34
2371.48
2395.97
2414.07
2422.85
2417.77
2391.71
2346.31
2288.65
2223.31
2153.29
2080.58
2006.54
1932.1
1857.93
1784.54
1712.31
1641.59
1572.65
1505.76
1441.2
1379.21
1319.99
1263.71
1210.53
1160.57
1113.92
1070.63
1030.72
994.149
960.861
930.734
903.627
879.376
857.788
838.646
821.669
806.569
801.325
804.248
807.474
811.032
814.954
819.273
824.026
829.248
834.978
841.257
848.124
855.62
863.786
872.665
882.297
892.723
903.98
916.107
929.139
943.109
958.047
973.977
990.923
1008.92
1027.99
1048.16
1069.46
1091.9
1115.47
1140.19
1166.06
1193.07
1221.2
1250.46
1280.81
1312.23
1344.69
1378.16
1412.59
1447.95
1484.18
1521.22
1559.02
1597.51
1636.61
1676.27
1716.39
1756.89
1797.7
1838.73
1879.88
1921.06
1962.18
2003.14
2043.84
2084.17
2124
2163.2
2201.59
2238.96
2275.03
2309.39
2340.98
2369.19
2393.91
2412.46
2422.04
2418.27
2394.34
2350.38
2293.72
2229.09
2159.57
2087.22
2013.43
1939.15
1865.06
1791.69
1719.43
1648.62
1579.53
1512.44
1447.63
1385.34
1325.78
1269.12
1215.54
1165.15
1118.06
1074.32
1033.95
996.944
963.229
932.697
905.21
880.606
858.695
839.26
822.017
806.675
801.334
804.278
807.527
811.11
815.06
819.411
824.197
829.457
835.228
841.551
848.465
856.012
864.233
873.169
882.862
893.35
904.674
916.869
929.972
944.013
959.024
975.029
992.051
1010.13
1029.26
1049.5
1070.87
1093.36
1116.99
1141.76
1167.67
1194.72
1222.88
1252.15
1282.51
1313.92
1346.37
1379.8
1414.19
1449.48
1485.63
1522.58
1560.27
1598.63
1637.59
1677.09
1717.03
1757.35
1797.96
1838.77
1879.7
1920.65
1961.53
2002.25
2042.7
2082.78
2122.38
2161.34
2199.51
2236.69
2272.6
2306.85
2338.5
2366.8
2391.74
2410.76
2421.15
2418.76
2397.05
2354.6
2299
2235.11
2166.13
2094.16
2020.63
1946.53
1872.55
1799.21
1726.92
1656.02
1586.79
1519.51
1454.44
1391.85
1331.93
1274.89
1220.88
1170.04
1122.48
1078.27
1037.42
999.944
965.773
934.806
906.911
881.928
859.671
839.92
822.391
806.79
801.345
804.311
807.585
811.196
815.176
819.561
824.384
829.684
835.5
841.87
848.836
856.438
864.718
873.716
883.474
894.032
905.426
917.695
930.873
944.992
960.079
976.161
993.257
1011.4
1030.62
1050.94
1072.38
1094.94
1118.64
1143.47
1169.43
1196.51
1224.71
1254
1284.36
1315.77
1348.2
1381.61
1415.95
1451.18
1487.25
1524.1
1561.68
1599.91
1638.73
1678.06
1717.84
1757.96
1798.36
1838.95
1879.64
1920.36
1960.99
2001.45
2041.65
2081.48
2120.81
2159.53
2197.48
2234.45
2270.18
2304.3
2335.99
2364.36
2389.52
2409
2420.22
2419.22
2399.77
2358.86
2304.34
2241.22
2172.79
2101.22
2027.97
1954.06
1880.2
1806.91
1734.61
1663.63
1594.27
1526.8
1461.48
1398.59
1338.33
1280.89
1226.46
1175.16
1127.12
1082.41
1041.07
1003.1
968.452
937.029
908.703
883.321
860.698
840.615
822.785
806.911
801.355
804.346
807.646
811.286
815.3
819.72
824.583
829.927
835.789
842.21
849.231
856.891
865.233
874.297
884.124
894.754
906.223
918.57
931.827
946.026
961.195
977.36
994.539
1012.76
1032.09
1052.48
1073.98
1096.62
1120.38
1145.26
1171.28
1198.4
1226.64
1255.95
1286.33
1317.74
1350.15
1383.53
1417.82
1453
1488.99
1525.75
1563.21
1601.31
1639.99
1679.16
1718.75
1758.68
1798.88
1839.25
1879.72
1920.19
1960.58
2000.79
2040.73
2080.29
2119.38
2157.85
2195.56
2232.31
2267.86
2301.85
2333.54
2361.97
2387.33
2407.24
2419.26
2419.61
2402.4
2363.01
2309.55
2247.19
2179.32
2108.15
2035.19
1961.48
1887.75
1814.52
1742.22
1671.19
1601.72
1534.08
1468.54
1405.36
1344.77
1286.96
1232.1
1180.36
1131.84
1086.64
1044.8
1006.34
971.201
939.311
910.545
884.753
861.754
841.329
823.189
807.035
801.366
804.381
807.708
811.379
815.426
819.884
824.788
830.176
836.087
842.56
849.636
857.357
865.762
874.892
884.789
895.491
907.037
919.461
932.798
947.078
962.329
978.575
995.834
1014.14
1033.52
1054
1075.59
1098.3
1122.13
1147.08
1173.15
1200.32
1228.59
1257.93
1288.32
1319.73
1352.13
1385.48
1419.74
1454.85
1490.77
1527.44
1564.8
1602.77
1641.31
1680.32
1719.74
1759.49
1799.5
1839.66
1879.91
1920.15
1960.31
2000.27
2039.97
2079.29
2118.13
2156.36
2193.84
2230.38
2265.75
2299.6
2331.28
2359.73
2385.25
2405.55
2418.3
2419.91
2404.78
2366.83
2314.39
2252.76
2185.41
2114.63
2041.96
1968.45
1894.85
1821.7
1749.42
1678.36
1608.81
1541.03
1475.29
1411.87
1350.98
1292.83
1237.59
1185.43
1136.46
1090.79
1048.48
1009.53
973.918
941.571
912.37
886.172
862.8