/*--------------------------------*- C++ -*----------------------------------*\
| =========                 |                                                 |
| \\      /  F ield         | OpenFOAM: The Open Source CFD Toolbox           |
|  \\    /   O peration     | Version:  2.3.x                                 |
|   \\  /    A nd           | Web:      www.OpenFOAM.org                      |
|    \\/     M anipulation  |                                                 |
\*---------------------------------------------------------------------------*/
FoamFile
{
    version     2.0;
    format      ascii;
    class       volVectorField;
    location    "0.5";
    object      U;
}
// * * * * * * * * * * * * * * * * * * * * * * * * * * * * * * * * * * * * * //

dimensions      [0 1 -1 0 0 0 0];

internalField   nonuniform List<vector> 
4000
(
(0.0998649 -0.00837925 0)
(0.0991155 -0.0236404 0)
(0.0979906 -0.0378258 0)
(0.0965938 -0.0511907 0)
(0.0949905 -0.0638857 0)
(0.0932056 -0.0760024 0)
(0.0912497 -0.0875994 0)
(0.0891292 -0.098715 0)
(0.0868486 -0.109374 0)
(0.0844109 -0.119591 0)
(0.0818185 -0.129377 0)
(0.0790739 -0.138736 0)
(0.0761797 -0.14767 0)
(0.073139 -0.156181 0)
(0.0699552 -0.164267 0)
(0.0666323 -0.171928 0)
(0.0631747 -0.179163 0)
(0.0595878 -0.185972 0)
(0.0558768 -0.192354 0)
(0.0520481 -0.198311 0)
(0.0481079 -0.203844 0)
(0.0440633 -0.208957 0)
(0.0399214 -0.213653 0)
(0.0356903 -0.217937 0)
(0.0313779 -0.221815 0)
(0.0269922 -0.225295 0)
(0.022541 -0.228383 0)
(0.018032 -0.23109 0)
(0.0134725 -0.233424 0)
(0.00886986 -0.235397 0)
(0.0042308 -0.237021 0)
(-0.000438103 -0.238307 0)
(-0.00513068 -0.239269 0)
(-0.00984115 -0.23992 0)
(-0.0145641 -0.240274 0)
(-0.0192945 -0.240346 0)
(-0.0240277 -0.240151 0)
(-0.0287593 -0.239704 0)
(-0.0334853 -0.23902 0)
(-0.0382018 -0.238115 0)
(-0.0429051 -0.237005 0)
(-0.0475917 -0.235706 0)
(-0.0522581 -0.234235 0)
(-0.0569011 -0.232606 0)
(-0.0615173 -0.230837 0)
(-0.0661031 -0.228943 0)
(-0.0706553 -0.226941 0)
(-0.0751702 -0.224846 0)
(-0.0796443 -0.222675 0)
(-0.0840739 -0.220443 0)
(-0.0884551 -0.218167 0)
(-0.0927839 -0.215862 0)
(-0.0970562 -0.213544 0)
(-0.101268 -0.211231 0)
(-0.105414 -0.208938 0)
(-0.109491 -0.206683 0)
(-0.113493 -0.204485 0)
(-0.117415 -0.202363 0)
(-0.12125 -0.200339 0)
(-0.124993 -0.198437 0)
(-0.128635 -0.196683 0)
(-0.132161 -0.195108 0)
(-0.13555 -0.193745 0)
(-0.138775 -0.192625 0)
(-0.141812 -0.191782 0)
(-0.144619 -0.191263 0)
(-0.147094 -0.1911 0)
(-0.149053 -0.191288 0)
(-0.150182 -0.191718 0)
(-0.150328 -0.192126 0)
(-0.149647 -0.192252 0)
(-0.148437 -0.191951 0)
(-0.146893 -0.191187 0)
(-0.145123 -0.18996 0)
(-0.143195 -0.188283 0)
(-0.141152 -0.186168 0)
(-0.139026 -0.183628 0)
(-0.136842 -0.180673 0)
(-0.134616 -0.177308 0)
(-0.132365 -0.173538 0)
(-0.130102 -0.169361 0)
(-0.127843 -0.164776 0)
(-0.125601 -0.15978 0)
(-0.123393 -0.154369 0)
(-0.121236 -0.148541 0)
(-0.119144 -0.142291 0)
(-0.117131 -0.135619 0)
(-0.115213 -0.128523 0)
(-0.113401 -0.121001 0)
(-0.111708 -0.113054 0)
(-0.110142 -0.104681 0)
(-0.10871 -0.0958822 0)
(-0.107413 -0.0866543 0)
(-0.106247 -0.0769904 0)
(-0.105205 -0.0668752 0)
(-0.104271 -0.0562812 0)
(-0.103421 -0.0451613 0)
(-0.102608 -0.0334355 0)
(-0.101735 -0.0209574 0)
(-0.100675 -0.00746053 0)
(0.100095 -0.00675385 0)
(0.0997493 -0.0199755 0)
(0.09897 -0.0327749 0)
(0.0978059 -0.0450985 0)
(0.0963501 -0.0569396 0)
(0.0946576 -0.0683069 0)
(0.0927576 -0.0792147 0)
(0.090668 -0.0896772 0)
(0.0884011 -0.099707 0)
(0.0859656 -0.109314 0)
(0.0833679 -0.118506 0)
(0.080613 -0.127288 0)
(0.0777054 -0.135663 0)
(0.0746496 -0.143636 0)
(0.0714498 -0.151207 0)
(0.0681106 -0.158378 0)
(0.0646369 -0.165151 0)
(0.061034 -0.171527 0)
(0.0573076 -0.17751 0)
(0.0534636 -0.1831 0)
(0.0495086 -0.188303 0)
(0.0454491 -0.193121 0)
(0.0412923 -0.197559 0)
(0.0370461 -0.201624 0)
(0.0327184 -0.205321 0)
(0.0283168 -0.208658 0)
(0.023849 -0.211642 0)
(0.0193222 -0.214282 0)
(0.0147438 -0.216586 0)
(0.0101208 -0.218566 0)
(0.00545986 -0.22023 0)
(0.000767425 -0.22159 0)
(-0.00395048 -0.222658 0)
(-0.00868817 -0.223445 0)
(-0.0134403 -0.223964 0)
(-0.018202 -0.224227 0)
(-0.0229686 -0.224247 0)
(-0.0277359 -0.224038 0)
(-0.0324997 -0.223612 0)
(-0.0372563 -0.222985 0)
(-0.0420022 -0.222169 0)
(-0.0467337 -0.221178 0)
(-0.0514475 -0.220028 0)
(-0.0561403 -0.218732 0)
(-0.0608088 -0.217305 0)
(-0.0654495 -0.21576 0)
(-0.0700593 -0.214114 0)
(-0.0746345 -0.21238 0)
(-0.0791718 -0.210572 0)
(-0.0836673 -0.208707 0)
(-0.0881174 -0.206797 0)
(-0.0925183 -0.204859 0)
(-0.096866 -0.202907 0)
(-0.101157 -0.200956 0)
(-0.105386 -0.199022 0)
(-0.10955 -0.197121 0)
(-0.113645 -0.19527 0)
(-0.117666 -0.193484 0)
(-0.121608 -0.191783 0)
(-0.125465 -0.190184 0)
(-0.129233 -0.188705 0)
(-0.132897 -0.187365 0)
(-0.136438 -0.186181 0)
(-0.139832 -0.185166 0)
(-0.14306 -0.184331 0)
(-0.146078 -0.183678 0)
(-0.148774 -0.18319 0)
(-0.150937 -0.182824 0)
(-0.152202 -0.182501 0)
(-0.152391 -0.182095 0)
(-0.151681 -0.181501 0)
(-0.15042 -0.180637 0)
(-0.14883 -0.179453 0)
(-0.147024 -0.177922 0)
(-0.14507 -0.176026 0)
(-0.143009 -0.173758 0)
(-0.140872 -0.171114 0)
(-0.138679 -0.168092 0)
(-0.136447 -0.164691 0)
(-0.134191 -0.160909 0)
(-0.131924 -0.156747 0)
(-0.129659 -0.152201 0)
(-0.127411 -0.147272 0)
(-0.125196 -0.141957 0)
(-0.123032 -0.136258 0)
(-0.120931 -0.130174 0)
(-0.11891 -0.123707 0)
(-0.116983 -0.116859 0)
(-0.115161 -0.109632 0)
(-0.113456 -0.102029 0)
(-0.111875 -0.0940544 0)
(-0.110421 -0.0857092 0)
(-0.109094 -0.076995 0)
(-0.107882 -0.0679114 0)
(-0.10677 -0.058456 0)
(-0.105729 -0.0486258 0)
(-0.104716 -0.038419 0)
(-0.10365 -0.0278414 0)
(-0.102404 -0.0169105 0)
(-0.100913 -0.00568337 0)
(0.100063 -0.00620715 0)
(0.0998412 -0.0183863 0)
(0.0992328 -0.0302709 0)
(0.0982631 -0.041811 0)
(0.0969876 -0.0529771 0)
(0.0954464 -0.0637543 0)
(0.0936675 -0.0741363 0)
(0.0916723 -0.0841216 0)
(0.0894778 -0.0937108 0)
(0.0870975 -0.102906 0)
(0.0845423 -0.111709 0)
(0.0818209 -0.120122 0)
(0.078941 -0.128147 0)
(0.0759092 -0.135787 0)
(0.0727316 -0.143041 0)
(0.0694144 -0.149913 0)
(0.0659631 -0.156404 0)
(0.0623838 -0.162517 0)
(0.0586823 -0.168253 0)
(0.0548647 -0.173618 0)
(0.0509374 -0.178613 0)
(0.0469067 -0.183244 0)
(0.0427795 -0.187517 0)
(0.038563 -0.191436 0)
(0.0342648 -0.195009 0)
(0.0298923 -0.198242 0)
(0.0254524 -0.201144 0)
(0.0209517 -0.203723 0)
(0.0163969 -0.205988 0)
(0.0117946 -0.207947 0)
(0.00715094 -0.209612 0)
(0.00247183 -0.210993 0)
(-0.00223711 -0.2121 0)
(-0.00697064 -0.212945 0)
(-0.0117238 -0.213539 0)
(-0.016492 -0.213895 0)
(-0.0212709 -0.214023 0)
(-0.0260565 -0.213937 0)
(-0.030845 -0.213648 0)
(-0.0356329 -0.21317 0)
(-0.0404166 -0.212516 0)
(-0.0451929 -0.211698 0)
(-0.0499586 -0.21073 0)
(-0.0547106 -0.209625 0)
(-0.0594455 -0.208396 0)
(-0.0641604 -0.207056 0)
(-0.0688519 -0.20562 0)
(-0.073517 -0.2041 0)
(-0.0781522 -0.20251 0)
(-0.0827544 -0.200863 0)
(-0.0873201 -0.199175 0)
(-0.0918462 -0.197457 0)
(-0.0963294 -0.195725 0)
(-0.100767 -0.193991 0)
(-0.105155 -0.192271 0)
(-0.109491 -0.190577 0)
(-0.113773 -0.188926 0)
(-0.117998 -0.187329 0)
(-0.122163 -0.185802 0)
(-0.126265 -0.184359 0)
(-0.130298 -0.183011 0)
(-0.134251 -0.181769 0)
(-0.138103 -0.180642 0)
(-0.141831 -0.179633 0)
(-0.145413 -0.178741 0)
(-0.14878 -0.177956 0)
(-0.151793 -0.177251 0)
(-0.154201 -0.176581 0)
(-0.155613 -0.175883 0)
(-0.155843 -0.175075 0)
(-0.155106 -0.174099 0)
(-0.153774 -0.172907 0)
(-0.152087 -0.171456 0)
(-0.150173 -0.169715 0)
(-0.148108 -0.167662 0)
(-0.145939 -0.165281 0)
(-0.143699 -0.162561 0)
(-0.141408 -0.159495 0)
(-0.139083 -0.156079 0)
(-0.136735 -0.152307 0)
(-0.134378 -0.148179 0)
(-0.132023 -0.143691 0)
(-0.129684 -0.138843 0)
(-0.127378 -0.133636 0)
(-0.12512 -0.12807 0)
(-0.122924 -0.122148 0)
(-0.120805 -0.115872 0)
(-0.118776 -0.109247 0)
(-0.11685 -0.102276 0)
(-0.115035 -0.094966 0)
(-0.113337 -0.0873221 0)
(-0.111758 -0.0793508 0)
(-0.110292 -0.071059 0)
(-0.108926 -0.0624541 0)
(-0.107639 -0.0535451 0)
(-0.106402 -0.0443435 0)
(-0.105172 -0.0348661 0)
(-0.103889 -0.0251393 0)
(-0.102468 -0.0152009 0)
(-0.100865 -0.0050987 0)
(0.10008 -0.00565896 0)
(0.0999352 -0.0168117 0)
(0.099446 -0.0277472 0)
(0.0986179 -0.0384214 0)
(0.0974877 -0.0488013 0)
(0.0960846 -0.0588633 0)
(0.0944311 -0.0685911 0)
(0.0925469 -0.0779737 0)
(0.0904487 -0.0870039 0)
(0.0881514 -0.095677 0)
(0.0856674 -0.10399 0)
(0.0830076 -0.111943 0)
(0.0801815 -0.119533 0)
(0.0771977 -0.126762 0)
(0.0740637 -0.133631 0)
(0.0707869 -0.14014 0)
(0.067374 -0.146291 0)
(0.0638316 -0.152088 0)
(0.0601664 -0.157532 0)
(0.0563846 -0.162628 0)
(0.0524927 -0.16738 0)
(0.0484971 -0.171792 0)
(0.0444044 -0.17587 0)
(0.0402218 -0.17962 0)
(0.0359563 -0.183049 0)
(0.0316151 -0.186163 0)
(0.0272047 -0.188971 0)
(0.0227315 -0.19148 0)
(0.0182017 -0.193699 0)
(0.013621 -0.195637 0)
(0.00899534 -0.197304 0)
(0.00433 -0.198709 0)
(-0.000369895 -0.199861 0)
(-0.00509956 -0.200773 0)
(-0.00985452 -0.201453 0)
(-0.0146306 -0.201913 0)
(-0.019424 -0.202164 0)
(-0.024231 -0.202217 0)
(-0.0290483 -0.202083 0)
(-0.0338727 -0.201774 0)
(-0.0387011 -0.201301 0)
(-0.0435305 -0.200676 0)
(-0.0483582 -0.199911 0)
(-0.0531812 -0.199018 0)
(-0.0579969 -0.198009 0)
(-0.0628023 -0.196895 0)
(-0.0675947 -0.19569 0)
(-0.0723713 -0.194405 0)
(-0.0771292 -0.193052 0)
(-0.0818657 -0.191644 0)
(-0.0865779 -0.190193 0)
(-0.0912632 -0.188711 0)
(-0.0959191 -0.18721 0)
(-0.100543 -0.185703 0)
(-0.105134 -0.184201 0)
(-0.109688 -0.182716 0)
(-0.114206 -0.181259 0)
(-0.118684 -0.179841 0)
(-0.12312 -0.178472 0)
(-0.127512 -0.17716 0)
(-0.131854 -0.175914 0)
(-0.136132 -0.174738 0)
(-0.14032 -0.173634 0)
(-0.144394 -0.172599 0)
(-0.148318 -0.171626 0)
(-0.152006 -0.1707 0)
(-0.155295 -0.169795 0)
(-0.157899 -0.168872 0)
(-0.159417 -0.167877 0)
(-0.159673 -0.166753 0)
(-0.158916 -0.165468 0)
(-0.157527 -0.163989 0)
(-0.155754 -0.162286 0)
(-0.153735 -0.160334 0)
(-0.151552 -0.15811 0)
(-0.149259 -0.155599 0)
(-0.14689 -0.152787 0)
(-0.144469 -0.149664 0)
(-0.142013 -0.146225 0)
(-0.139534 -0.142462 0)
(-0.137046 -0.138374 0)
(-0.134559 -0.133958 0)
(-0.132088 -0.129214 0)
(-0.12965 -0.124144 0)
(-0.127259 -0.118749 0)
(-0.12493 -0.113034 0)
(-0.122677 -0.107003 0)
(-0.120513 -0.100663 0)
(-0.118449 -0.0940206 0)
(-0.116494 -0.0870842 0)
(-0.114652 -0.0798632 0)
(-0.112924 -0.0723678 0)
(-0.111302 -0.0646096 0)
(-0.109774 -0.056602 0)
(-0.108319 -0.0483607 0)
(-0.106911 -0.0399047 0)
(-0.105513 -0.0312584 0)
(-0.104077 -0.0224535 0)
(-0.102537 -0.0135274 0)
(-0.10087 -0.00451761 0)
(0.10008 -0.00521032 0)
(0.099972 -0.015485 0)
(0.0995509 -0.0255777 0)
(0.0988148 -0.0354552 0)
(0.0977897 -0.0450888 0)
(0.0964965 -0.0544548 0)
(0.0949521 -0.0635344 0)
(0.0931726 -0.0723133 0)
(0.0911728 -0.0807805 0)
(0.0889665 -0.0889278 0)
(0.0865663 -0.0967491 0)
(0.0839833 -0.10424 0)
(0.0812279 -0.111399 0)
(0.0783093 -0.118222 0)
(0.0752362 -0.124711 0)
(0.0720166 -0.130866 0)
(0.0686579 -0.136687 0)
(0.0651675 -0.142177 0)
(0.0615521 -0.147338 0)
(0.0578186 -0.152174 0)
(0.0539735 -0.156689 0)
(0.0500233 -0.160887 0)
(0.0459745 -0.164774 0)
(0.041834 -0.168356 0)
(0.037609 -0.171639 0)
(0.0333059 -0.17463 0)
(0.028931 -0.177336 0)
(0.0244903 -0.179766 0)
(0.0199896 -0.181928 0)
(0.0154342 -0.183829 0)
(0.0108294 -0.18548 0)
(0.00618016 -0.186889 0)
(0.00149103 -0.188065 0)
(-0.00323369 -0.189019 0)
(-0.00799004 -0.18976 0)
(-0.0127743 -0.190297 0)
(-0.0175832 -0.190641 0)
(-0.0224135 -0.190803 0)
(-0.0272623 -0.190792 0)
(-0.0321269 -0.190619 0)
(-0.0370047 -0.190295 0)
(-0.0418931 -0.189829 0)
(-0.0467897 -0.189233 0)
(-0.0516923 -0.188518 0)
(-0.0565983 -0.187693 0)
(-0.0615054 -0.186771 0)
(-0.0664114 -0.185761 0)
(-0.0713137 -0.184675 0)
(-0.0762099 -0.183523 0)
(-0.0810978 -0.182316 0)
(-0.085975 -0.181065 0)
(-0.0908394 -0.17978 0)
(-0.0956889 -0.178472 0)
(-0.100522 -0.17715 0)
(-0.105336 -0.175825 0)
(-0.110131 -0.174505 0)
(-0.114904 -0.1732 0)
(-0.119653 -0.171917 0)
(-0.124376 -0.170664 0)
(-0.129068 -0.169444 0)
(-0.133723 -0.168264 0)
(-0.138321 -0.167123 0)
(-0.142833 -0.16602 0)
(-0.147227 -0.16495 0)
(-0.15146 -0.163904 0)
(-0.155428 -0.162867 0)
(-0.158945 -0.161816 0)
(-0.161694 -0.160715 0)
(-0.163273 -0.159515 0)
(-0.163532 -0.158177 0)
(-0.162749 -0.156678 0)
(-0.161306 -0.154999 0)
(-0.159454 -0.153117 0)
(-0.157333 -0.151012 0)
(-0.155032 -0.148665 0)
(-0.152608 -0.146063 0)
(-0.150099 -0.143192 0)
(-0.147532 -0.140044 0)
(-0.144924 -0.136611 0)
(-0.142291 -0.132887 0)
(-0.139646 -0.128871 0)
(-0.137 -0.124559 0)
(-0.134371 -0.119952 0)
(-0.131774 -0.115053 0)
(-0.129225 -0.109866 0)
(-0.126739 -0.104394 0)
(-0.124328 -0.0986438 0)
(-0.122008 -0.092624 0)
(-0.119788 -0.086343 0)
(-0.117677 -0.0798109 0)
(-0.11568 -0.0730392 0)
(-0.113798 -0.0660404 0)
(-0.112023 -0.0588287 0)
(-0.110344 -0.05142 0)
(-0.108743 -0.0438321 0)
(-0.107197 -0.036086 0)
(-0.105678 -0.0282061 0)
(-0.104143 -0.0202218 0)
(-0.102542 -0.0121638 0)
(-0.100856 -0.00405735 0)
(0.100082 -0.00479284 0)
(0.0999981 -0.0142496 0)
(0.0996228 -0.0235487 0)
(0.098951 -0.0326633 0)
(0.0980032 -0.041569 0)
(0.0967954 -0.0502442 0)
(0.0953406 -0.0586706 0)
(0.0936518 -0.0668334 0)
(0.0917416 -0.0747203 0)
(0.0896223 -0.0823216 0)
(0.0873056 -0.0896296 0)
(0.0848022 -0.0966386 0)
(0.0821221 -0.103344 0)
(0.079275 -0.109744 0)
(0.0762695 -0.115836 0)
(0.073114 -0.12162 0)
(0.0698164 -0.127096 0)
(0.066384 -0.132266 0)
(0.0628241 -0.137132 0)
(0.0591436 -0.141696 0)
(0.0553492 -0.145964 0)
(0.0514472 -0.149938 0)
(0.0474443 -0.153624 0)
(0.0433471 -0.157028 0)
(0.0391626 -0.160156 0)
(0.0348973 -0.163014 0)
(0.0305571 -0.16561 0)
(0.0261475 -0.167951 0)
(0.0216739 -0.170044 0)
(0.0171414 -0.171898 0)
(0.0125548 -0.17352 0)
(0.00791863 -0.174921 0)
(0.003237 -0.176108 0)
(-0.00148627 -0.177089 0)
(-0.00624768 -0.177875 0)
(-0.011044 -0.178475 0)
(-0.0158724 -0.178896 0)
(-0.0207302 -0.17915 0)
(-0.0256148 -0.179244 0)
(-0.0305242 -0.179189 0)
(-0.0354561 -0.178994 0)
(-0.0404084 -0.178669 0)
(-0.0453794 -0.178222 0)
(-0.0503669 -0.177663 0)
(-0.0553691 -0.177002 0)
(-0.0603841 -0.176249 0)
(-0.0654098 -0.175413 0)
(-0.0704442 -0.174503 0)
(-0.0754853 -0.173528 0)
(-0.080531 -0.172498 0)
(-0.0855795 -0.171423 0)
(-0.0906286 -0.17031 0)
(-0.0956767 -0.169168 0)
(-0.100722 -0.168006 0)
(-0.105762 -0.166831 0)
(-0.110796 -0.165651 0)
(-0.115822 -0.164472 0)
(-0.120836 -0.163299 0)
(-0.125834 -0.162138 0)
(-0.130811 -0.160991 0)
(-0.135755 -0.159859 0)
(-0.140646 -0.158744 0)
(-0.145446 -0.15764 0)
(-0.150121 -0.156543 0)
(-0.154616 -0.155442 0)
(-0.158816 -0.154325 0)
(-0.162512 -0.153171 0)
(-0.165359 -0.151946 0)
(-0.166957 -0.150608 0)
(-0.167195 -0.149124 0)
(-0.166372 -0.147481 0)
(-0.164872 -0.145666 0)
(-0.16294 -0.143663 0)
(-0.160722 -0.141457 0)
(-0.158306 -0.139035 0)
(-0.155754 -0.136382 0)
(-0.153107 -0.13349 0)
(-0.150392 -0.130351 0)
(-0.14763 -0.126957 0)
(-0.144837 -0.123305 0)
(-0.142029 -0.119391 0)
(-0.13922 -0.115216 0)
(-0.136426 -0.11078 0)
(-0.133664 -0.106085 0)
(-0.130952 -0.101138 0)
(-0.128304 -0.0959426 0)
(-0.125736 -0.0905068 0)
(-0.123259 -0.0848393 0)
(-0.120887 -0.0789498 0)
(-0.118627 -0.0728495 0)
(-0.116486 -0.0665506 0)
(-0.114463 -0.0600668 0)
(-0.112554 -0.0534126 0)
(-0.110748 -0.0466041 0)
(-0.10903 -0.0396592 0)
(-0.107379 -0.0325975 0)
(-0.105772 -0.025441 0)
(-0.104172 -0.0182153 0)
(-0.102535 -0.0109447 0)
(-0.100845 -0.00364688 0)
(0.100082 -0.00440373 0)
(0.100014 -0.0130943 0)
(0.0996701 -0.0216448 0)
(0.0990444 -0.0300333 0)
(0.098154 -0.0382392 0)
(0.0970121 -0.0462432 0)
(0.0956293 -0.0540288 0)
(0.0940161 -0.0615818 0)
(0.0921834 -0.0688899 0)
(0.0901419 -0.0759433 0)
(0.0879021 -0.0827337 0)
(0.085474 -0.0892545 0)
(0.0828671 -0.0955008 0)
(0.0800907 -0.101469 0)
(0.0771532 -0.107157 0)
(0.074063 -0.112562 0)
(0.0708279 -0.117687 0)
(0.0674553 -0.122529 0)
(0.0639525 -0.127093 0)
(0.0603264 -0.13138 0)
(0.0565836 -0.135392 0)
(0.0527305 -0.139136 0)
(0.0487736 -0.142614 0)
(0.0447194 -0.145832 0)
(0.0405746 -0.148795 0)
(0.0363455 -0.151511 0)
(0.0320379 -0.153986 0)
(0.027657 -0.156225 0)
(0.0232079 -0.158238 0)
(0.0186954 -0.16003 0)
(0.0141238 -0.161611 0)
(0.00949739 -0.162987 0)
(0.00481977 -0.164168 0)
(9.43799e-05 -0.16516 0)
(-0.0046757 -0.165973 0)
(-0.0094877 -0.166614 0)
(-0.0143392 -0.167093 0)
(-0.0192279 -0.167416 0)
(-0.0241518 -0.167594 0)
(-0.0291092 -0.167634 0)
(-0.0340983 -0.167545 0)
(-0.0391175 -0.167334 0)
(-0.0441653 -0.167011 0)
(-0.0492402 -0.166584 0)
(-0.0543405 -0.166062 0)
(-0.0594647 -0.165451 0)
(-0.064611 -0.164762 0)
(-0.0697778 -0.164001 0)
(-0.0749631 -0.163177 0)
(-0.0801653 -0.162297 0)
(-0.0853823 -0.16137 0)
(-0.0906123 -0.160402 0)
(-0.0958532 -0.159401 0)
(-0.101103 -0.158373 0)
(-0.10636 -0.157324 0)
(-0.11162 -0.156259 0)
(-0.116882 -0.155184 0)
(-0.122141 -0.154103 0)
(-0.127391 -0.153018 0)
(-0.132625 -0.151931 0)
(-0.137829 -0.150843 0)
(-0.142976 -0.149752 0)
(-0.148025 -0.148654 0)
(-0.152937 -0.147543 0)
(-0.157651 -0.14641 0)
(-0.162039 -0.145245 0)
(-0.16587 -0.144027 0)
(-0.168775 -0.142727 0)
(-0.170359 -0.141304 0)
(-0.170552 -0.139734 0)
(-0.169677 -0.138007 0)
(-0.168113 -0.136116 0)
(-0.166102 -0.13405 0)
(-0.163789 -0.131799 0)
(-0.161264 -0.12935 0)
(-0.15859 -0.126695 0)
(-0.155809 -0.123826 0)
(-0.152953 -0.120736 0)
(-0.150042 -0.117421 0)
(-0.147095 -0.113877 0)
(-0.144129 -0.110102 0)
(-0.14116 -0.106097 0)
(-0.138206 -0.101863 0)
(-0.135287 -0.0974045 0)
(-0.132418 -0.0927259 0)
(-0.129617 -0.0878337 0)
(-0.126899 -0.0827356 0)
(-0.124277 -0.0774406 0)
(-0.121765 -0.0719589 0)
(-0.119371 -0.0663017 0)
(-0.117101 -0.0604812 0)
(-0.114958 -0.0545108 0)
(-0.112936 -0.0484047 0)
(-0.111026 -0.042178 0)
(-0.109216 -0.0358471 0)
(-0.107487 -0.0294294 0)
(-0.105817 -0.0229442 0)
(-0.104174 -0.0164128 0)
(-0.102517 -0.00985467 0)
(-0.100831 -0.0032817 0)
(0.100083 -0.00403244 0)
(0.100026 -0.0119916 0)
(0.0997049 -0.0198253 0)
(0.0991137 -0.0275155 0)
(0.0982675 -0.0350441 0)
(0.0971774 -0.0423945 0)
(0.0958525 -0.0495518 0)
(0.0943017 -0.0565028 0)
(0.0925345 -0.0632363 0)
(0.0905603 -0.0697426 0)
(0.0883885 -0.0760134 0)
(0.0860283 -0.0820422 0)
(0.0834886 -0.0878237 0)
(0.080778 -0.0933538 0)
(0.0779048 -0.0986299 0)
(0.0748767 -0.10365 0)
(0.0717015 -0.108414 0)
(0.0683865 -0.112922 0)
(0.0649387 -0.117174 0)
(0.0613649 -0.121174 0)
(0.0576717 -0.124924 0)
(0.0538652 -0.128427 0)
(0.0499518 -0.131687 0)
(0.045938 -0.13471 0)
(0.0418301 -0.137499 0)
(0.0376343 -0.140062 0)
(0.033356 -0.142404 0)
(0.0290004 -0.144531 0)
(0.0245723 -0.14645 0)
(0.020076 -0.148169 0)
(0.0155157 -0.149693 0)
(0.0108952 -0.151031 0)
(0.00621785 -0.152189 0)
(0.00148675 -0.153176 0)
(-0.00329543 -0.153999 0)
(-0.0081263 -0.154664 0)
(-0.0130038 -0.155181 0)
(-0.017926 -0.155556 0)
(-0.0228914 -0.155797 0)
(-0.0278986 -0.155911 0)
(-0.0329461 -0.155906 0)
(-0.0380328 -0.155789 0)
(-0.0431575 -0.155568 0)
(-0.0483189 -0.15525 0)
(-0.0535158 -0.154843 0)
(-0.0587467 -0.154352 0)
(-0.0640102 -0.153786 0)
(-0.0693047 -0.153152 0)
(-0.0746285 -0.152455 0)
(-0.0799798 -0.151703 0)
(-0.0853565 -0.150902 0)
(-0.0907564 -0.150057 0)
(-0.0961774 -0.149175 0)
(-0.101617 -0.148261 0)
(-0.107072 -0.14732 0)
(-0.112539 -0.146355 0)
(-0.118015 -0.14537 0)
(-0.123493 -0.144369 0)
(-0.128967 -0.143352 0)
(-0.134426 -0.142322 0)
(-0.139855 -0.141277 0)
(-0.145221 -0.140216 0)
(-0.150481 -0.139134 0)
(-0.155592 -0.138026 0)
(-0.160485 -0.136885 0)
(-0.165021 -0.1357 0)
(-0.168951 -0.134453 0)
(-0.17188 -0.133118 0)
(-0.173424 -0.131658 0)
(-0.173554 -0.130049 0)
(-0.172616 -0.128289 0)
(-0.170984 -0.126374 0)
(-0.168894 -0.124296 0)
(-0.166489 -0.122048 0)
(-0.163861 -0.119621 0)
(-0.161073 -0.117009 0)
(-0.158168 -0.114205 0)
(-0.155179 -0.111206 0)
(-0.15213 -0.108006 0)
(-0.149041 -0.104606 0)
(-0.145928 -0.101003 0)
(-0.142812 -0.0971995 0)
(-0.139712 -0.0931972 0)
(-0.136647 -0.0890004 0)
(-0.133636 -0.0846145 0)
(-0.130696 -0.0800459 0)
(-0.127843 -0.0753026 0)
(-0.125093 -0.0703934 0)
(-0.122458 -0.0653282 0)
(-0.119948 -0.060118 0)
(-0.11757 -0.0547745 0)
(-0.115325 -0.0493099 0)
(-0.113211 -0.0437374 0)
(-0.111219 -0.0380707 0)
(-0.109337 -0.0323243 0)
(-0.107549 -0.0265135 0)
(-0.105834 -0.0206544 0)
(-0.104162 -0.0147648 0)
(-0.102495 -0.00886044 0)
(-0.100819 -0.00294927 0)
(0.100083 -0.0036753 0)
(0.100034 -0.0109303 0)
(0.0997312 -0.0180729 0)
(0.0991667 -0.0250877 0)
(0.0983551 -0.0319591 0)
(0.0973064 -0.0386724 0)
(0.0960283 -0.0452146 0)
(0.0945289 -0.0515737 0)
(0.0928165 -0.0577395 0)
(0.0908995 -0.0637028 0)
(0.0887865 -0.069456 0)
(0.0864858 -0.0749926 0)
(0.0840057 -0.0803075 0)
(0.0813542 -0.0853965 0)
(0.078539 -0.0902567 0)
(0.0755678 -0.0948861 0)
(0.0724476 -0.0992837 0)
(0.0691857 -0.10345 0)
(0.0657888 -0.107384 0)
(0.0622634 -0.11109 0)
(0.058616 -0.114568 0)
(0.0548526 -0.117822 0)
(0.0509792 -0.120856 0)
(0.047002 -0.123673 0)
(0.0429272 -0.126279 0)
(0.0387609 -0.128678 0)
(0.0345084 -0.130876 0)
(0.0301744 -0.132879 0)
(0.0257635 -0.134693 0)
(0.0212798 -0.136324 0)
(0.0167273 -0.137778 0)
(0.0121094 -0.139063 0)
(0.00742927 -0.140185 0)
(0.00268957 -0.14115 0)
(-0.00210726 -0.141965 0)
(-0.00695918 -0.142638 0)
(-0.0118644 -0.143175 0)
(-0.0168215 -0.143583 0)
(-0.021829 -0.143868 0)
(-0.026886 -0.144037 0)
(-0.0319913 -0.144096 0)
(-0.0371441 -0.144053 0)
(-0.0423434 -0.143913 0)
(-0.0475881 -0.143684 0)
(-0.0528772 -0.14337 0)
(-0.0582094 -0.142979 0)
(-0.0635835 -0.142515 0)
(-0.0689977 -0.141986 0)
(-0.0744505 -0.141397 0)
(-0.0799397 -0.140752 0)
(-0.0854632 -0.140058 0)
(-0.0910186 -0.139319 0)
(-0.0966031 -0.13854 0)
(-0.102214 -0.137725 0)
(-0.107846 -0.136877 0)
(-0.113498 -0.136001 0)
(-0.119162 -0.135097 0)
(-0.124832 -0.13417 0)
(-0.1305 -0.133219 0)
(-0.136154 -0.132245 0)
(-0.141774 -0.131247 0)
(-0.147325 -0.130225 0)
(-0.15276 -0.129172 0)
(-0.158033 -0.128085 0)
(-0.163072 -0.126957 0)
(-0.167723 -0.125779 0)
(-0.171722 -0.124534 0)
(-0.174651 -0.123199 0)
(-0.176135 -0.121739 0)
(-0.17619 -0.120135 0)
(-0.175182 -0.118386 0)
(-0.173479 -0.116491 0)
(-0.171311 -0.114447 0)
(-0.168819 -0.112246 0)
(-0.166095 -0.109884 0)
(-0.163202 -0.107355 0)
(-0.160184 -0.104657 0)
(-0.157076 -0.101784 0)
(-0.153902 -0.0987367 0)
(-0.150683 -0.0955126 0)
(-0.147439 -0.0921124 0)
(-0.144191 -0.0885377 0)
(-0.14096 -0.0847916 0)
(-0.137766 -0.0808785 0)
(-0.13463 -0.0768039 0)
(-0.131568 -0.0725742 0)
(-0.128599 -0.0681971 0)
(-0.125738 -0.0636811 0)
(-0.122998 -0.0590357 0)
(-0.120391 -0.0542709 0)
(-0.117922 -0.0493975 0)
(-0.115595 -0.0444267 0)
(-0.113407 -0.0393703 0)
(-0.11135 -0.0342403 0)
(-0.109413 -0.0290493 0)
(-0.107581 -0.0238104 0)
(-0.105833 -0.0185372 0)
(-0.104143 -0.0132446 0)
(-0.102471 -0.00794497 0)
(-0.100807 -0.00264367 0)
(0.100083 -0.00332907 0)
(0.100041 -0.00990121 0)
(0.0997517 -0.0163728 0)
(0.0992084 -0.0227308 0)
(0.0984245 -0.0289615 0)
(0.0974091 -0.0350521 0)
(0.0961693 -0.0409911 0)
(0.0947123 -0.0467679 0)
(0.0930455 -0.0523731 0)
(0.0911768 -0.0577986 0)
(0.0891138 -0.0630372 0)
(0.0868643 -0.068083 0)
(0.0844359 -0.0729308 0)
(0.0818361 -0.0775769 0)
(0.0790722 -0.0820183 0)
(0.0761513 -0.0862528 0)
(0.0730802 -0.0902794 0)
(0.0698658 -0.0940977 0)
(0.0665144 -0.0977082 0)
(0.0630325 -0.101112 0)
(0.0594261 -0.104311 0)
(0.055701 -0.107309 0)
(0.0518631 -0.110107 0)
(0.0479184 -0.11271 0)
(0.0438727 -0.115122 0)
(0.039732 -0.117347 0)
(0.0355013 -0.119391 0)
(0.0311852 -0.121258 0)
(0.026788 -0.122955 0)
(0.0223138 -0.124486 0)
(0.017766 -0.125857 0)
(0.013148 -0.127075 0)
(0.00846254 -0.128146 0)
(0.00371219 -0.129075 0)
(-0.00110095 -0.129869 0)
(-0.00597508 -0.130533 0)
(-0.0109087 -0.131074 0)
(-0.0159005 -0.131497 0)
(-0.0209496 -0.131809 0)
(-0.0260549 -0.132015 0)
(-0.0312158 -0.132122 0)
(-0.0364315 -0.132134 0)
(-0.0417012 -0.132057 0)
(-0.047024 -0.131897 0)
(-0.0523991 -0.13166 0)
(-0.0578252 -0.131349 0)
(-0.063301 -0.130971 0)
(-0.0688248 -0.13053 0)
(-0.0743949 -0.130031 0)
(-0.080009 -0.129478 0)
(-0.0856647 -0.128876 0)
(-0.091359 -0.128229 0)
(-0.0970888 -0.127539 0)
(-0.10285 -0.126812 0)
(-0.108639 -0.126049 0)
(-0.114451 -0.125253 0)
(-0.120278 -0.124426 0)
(-0.126114 -0.12357 0)
(-0.131948 -0.122684 0)
(-0.137766 -0.12177 0)
(-0.143548 -0.120827 0)
(-0.149254 -0.119852 0)
(-0.154833 -0.118843 0)
(-0.160239 -0.117794 0)
(-0.165392 -0.116699 0)
(-0.170132 -0.115551 0)
(-0.174176 -0.114336 0)
(-0.177086 -0.11303 0)
(-0.178499 -0.111604 0)
(-0.178471 -0.11004 0)
(-0.17739 -0.10834 0)
(-0.175615 -0.106505 0)
(-0.173373 -0.104531 0)
(-0.170799 -0.102417 0)
(-0.167987 -0.100157 0)
(-0.164998 -0.097749 0)
(-0.16188 -0.0951901 0)
(-0.158664 -0.0924785 0)
(-0.155379 -0.0896132 0)
(-0.152047 -0.0865942 0)
(-0.148688 -0.0834226 0)
(-0.145324 -0.0801005 0)
(-0.141979 -0.0766314 0)
(-0.138674 -0.0730197 0)
(-0.13543 -0.0692709 0)
(-0.132264 -0.0653912 0)
(-0.129196 -0.0613878 0)
(-0.126242 -0.0572688 0)
(-0.123415 -0.0530427 0)
(-0.120727 -0.0487188 0)
(-0.118185 -0.0443068 0)
(-0.115792 -0.0398166 0)
(-0.113545 -0.0352585 0)
(-0.111437 -0.0306431 0)
(-0.109458 -0.0259811 0)
(-0.107592 -0.0212836 0)
(-0.105822 -0.016562 0)
(-0.104119 -0.0118286 0)
(-0.102448 -0.00709343 0)
(-0.100796 -0.00235973 0)
(0.100083 -0.00299164 0)
(0.100046 -0.00889805 0)
(0.099768 -0.0147151 0)
(0.0992418 -0.0204314 0)
(0.0984802 -0.0260352 0)
(0.097492 -0.0315154 0)
(0.0962835 -0.0368617 0)
(0.0948614 -0.0420649 0)
(0.0932326 -0.0471166 0)
(0.0914042 -0.0520096 0)
(0.0893834 -0.0567372 0)
(0.0871774 -0.0612942 0)
(0.0847932 -0.0656758 0)
(0.0822378 -0.0698784 0)
(0.0795182 -0.073899 0)
(0.0766409 -0.0777358 0)
(0.0736126 -0.0813875 0)
(0.0704396 -0.0848535 0)
(0.0671282 -0.0881343 0)
(0.0636842 -0.0912306 0)
(0.0601137 -0.0941441 0)
(0.0564222 -0.0968769 0)
(0.0526152 -0.0994318 0)
(0.0486984 -0.101812 0)
(0.0446776 -0.104021 0)
(0.0405585 -0.106063 0)
(0.036346 -0.107942 0)
(0.0320444 -0.109664 0)
(0.0276579 -0.111231 0)
(0.0231901 -0.112651 0)
(0.0186446 -0.113928 0)
(0.0140243 -0.115067 0)
(0.00933195 -0.116073 0)
(0.00456972 -0.116952 0)
(-0.000260423 -0.11771 0)
(-0.0051569 -0.118351 0)
(-0.0101184 -0.118882 0)
(-0.0151439 -0.119306 0)
(-0.0202326 -0.119629 0)
(-0.0253837 -0.119857 0)
(-0.0305966 -0.119995 0)
(-0.0358707 -0.120046 0)
(-0.0412055 -0.120017 0)
(-0.0466 -0.119911 0)
(-0.0520534 -0.119734 0)
(-0.0575646 -0.119489 0)
(-0.0631321 -0.119181 0)
(-0.0687543 -0.118814 0)
(-0.074429 -0.118391 0)
(-0.080154 -0.117917 0)
(-0.0859263 -0.117396 0)
(-0.0917427 -0.116829 0)
(-0.0975996 -0.116221 0)
(-0.103492 -0.115573 0)
(-0.109416 -0.114889 0)
(-0.115366 -0.114169 0)
(-0.121333 -0.113416 0)
(-0.127309 -0.112631 0)
(-0.133283 -0.111814 0)
(-0.13924 -0.110964 0)
(-0.145156 -0.110082 0)
(-0.150989 -0.109166 0)
(-0.156686 -0.108212 0)
(-0.162198 -0.107216 0)
(-0.167442 -0.106173 0)
(-0.172248 -0.105077 0)
(-0.176318 -0.103914 0)
(-0.179198 -0.102664 0)
(-0.180533 -0.1013 0)
(-0.180421 -0.099807 0)
(-0.179266 -0.0981882 0)
(-0.177422 -0.0964453 0)
(-0.175109 -0.0945771 0)
(-0.172461 -0.0925816 0)
(-0.169568 -0.0904567 0)
(-0.166495 -0.0882004 0)
(-0.163287 -0.0858114 0)
(-0.159978 -0.0832887 0)
(-0.156596 -0.0806323 0)
(-0.153165 -0.0778429 0)
(-0.149707 -0.074922 0)
(-0.146244 -0.0718721 0)
(-0.142802 -0.0686969 0)
(-0.139402 -0.0654007 0)
(-0.136066 -0.0619886 0)
(-0.132813 -0.0584668 0)
(-0.129663 -0.0548417 0)
(-0.126631 -0.0511208 0)
(-0.123733 -0.0473118 0)
(-0.120979 -0.0434229 0)
(-0.118378 -0.0394627 0)
(-0.115932 -0.03544 0)
(-0.113639 -0.0313636 0)
(-0.111492 -0.0272427 0)
(-0.10948 -0.0230862 0)
(-0.10759 -0.0189036 0)
(-0.105804 -0.0147043 0)
(-0.104094 -0.0104985 0)
(-0.102425 -0.00629439 0)
(-0.100786 -0.00209355 0)
(0.100083 -0.00266132 0)
(0.10005 -0.00791587 0)
(0.0997811 -0.0130916 0)
(0.0992686 -0.0181787 0)
(0.0985252 -0.0231672 0)
(0.0975591 -0.0280473 0)
(0.0963764 -0.03281 0)
(0.0949831 -0.0374472 0)
(0.0933857 -0.0419518 0)
(0.0915908 -0.0463171 0)
(0.0896053 -0.0505374 0)
(0.0874357 -0.0546078 0)
(0.0850888 -0.0585242 0)
(0.0825712 -0.0622832 0)
(0.0798892 -0.0658821 0)
(0.0770492 -0.069319 0)
(0.0740575 -0.0725927 0)
(0.07092 -0.0757027 0)
(0.0676427 -0.078649 0)
(0.0642314 -0.0814323 0)
(0.0606916 -0.0840541 0)
(0.0570287 -0.0865159 0)
(0.053248 -0.0888203 0)
(0.0493549 -0.0909699 0)
(0.0453551 -0.0929679 0)
(0.0412539 -0.0948178 0)
(0.0370562 -0.0965234 0)
(0.0327661 -0.0980887 0)
(0.0283875 -0.0995181 0)
(0.023924 -0.100816 0)
(0.0193788 -0.101987 0)
(0.0147548 -0.103035 0)
(0.0100545 -0.103965 0)
(0.00527987 -0.104783 0)
(0.000432798 -0.105492 0)
(-0.00448535 -0.106098 0)
(-0.00947343 -0.106604 0)
(-0.0145306 -0.107016 0)
(-0.0196561 -0.107338 0)
(-0.0248493 -0.107574 0)
(-0.0301099 -0.107729 0)
(-0.0354372 -0.107807 0)
(-0.0408307 -0.107811 0)
(-0.0462896 -0.107746 0)
(-0.0518131 -0.107616 0)
(-0.0574 -0.107424 0)
(-0.0630487 -0.107174 0)
(-0.0687575 -0.106869 0)
(-0.0745241 -0.106512 0)
(-0.0803458 -0.106107 0)
(-0.0862195 -0.105656 0)
(-0.0921415 -0.105163 0)
(-0.0981077 -0.104628 0)
(-0.104113 -0.104055 0)
(-0.110152 -0.103445 0)
(-0.116218 -0.1028 0)
(-0.122303 -0.102121 0)
(-0.128398 -0.101408 0)
(-0.134489 -0.100662 0)
(-0.14056 -0.0998832 0)
(-0.146587 -0.0990702 0)
(-0.152524 -0.0982217 0)
(-0.158316 -0.097335 0)
(-0.163914 -0.0964068 0)
(-0.169229 -0.0954325 0)
(-0.174083 -0.0944055 0)
(-0.178166 -0.0933149 0)
(-0.181007 -0.0921429 0)
(-0.182262 -0.0908669 0)
(-0.182067 -0.0894713 0)
(-0.180841 -0.0879607 0)
(-0.178933 -0.0863378 0)
(-0.176554 -0.0846027 0)
(-0.173839 -0.0827543 0)
(-0.170876 -0.0807915 0)
(-0.167728 -0.0787135 0)
(-0.164441 -0.0765196 0)
(-0.161052 -0.0742098 0)
(-0.157587 -0.0717846 0)
(-0.154071 -0.0692451 0)
(-0.150528 -0.0665931 0)
(-0.146982 -0.0638315 0)
(-0.143457 -0.0609636 0)
(-0.139978 -0.0579938 0)
(-0.136566 -0.0549269 0)
(-0.133241 -0.0517684 0)
(-0.130023 -0.0485243 0)
(-0.126928 -0.0452011 0)
(-0.123972 -0.0418058 0)
(-0.121166 -0.0383456 0)
(-0.118517 -0.034828 0)
(-0.11603 -0.0312606 0)
(-0.113701 -0.0276509 0)
(-0.111523 -0.0240066 0)
(-0.109488 -0.0203354 0)
(-0.10758 -0.0166451 0)